/*--------------------------------*- C++ -*----------------------------------*\
  =========                 |
  \\      /  F ield         | OpenFOAM: The Open Source CFD Toolbox
   \\    /   O peration     | Website:  https://openfoam.org
    \\  /    A nd           | Version:  10
     \\/     M anipulation  |
\*---------------------------------------------------------------------------*/
FoamFile
{
    format      ascii;
    class       volScalarField;
    location    "1200/FLUID";
    object      p;
}
// * * * * * * * * * * * * * * * * * * * * * * * * * * * * * * * * * * * * * //

dimensions      [1 -1 -2 0 0 0 0];

internalField   nonuniform List<scalar> 
1200
(
101436.26
101435.4
101433.95
101432.47
101430.95
101429.43
101427.94
101426.51
101425.13
101423.81
101422.54
101421.32
101420.14
101418.99
101417.88
101416.79
101415.73
101414.68
101413.65
101412.65
101411.65
101410.68
101409.72
101408.77
101407.83
101406.91
101406
101405.11
101404.22
101403.35
101402.49
101401.64
101400.8
101399.96
101399.14
101398.33
101397.53
101396.74
101395.96
101395.18
101394.41
101393.66
101392.91
101392.17
101391.43
101390.71
101389.99
101389.28
101388.57
101387.88
101387.19
101386.51
101385.83
101385.16
101384.5
101383.84
101383.19
101382.55
101381.91
101381.28
101380.65
101380.03
101379.41
101378.8
101378.2
101377.6
101377.01
101376.42
101375.84
101375.26
101374.68
101374.12
101373.55
101372.99
101372.44
101371.89
101371.34
101370.8
101370.26
101369.73
101369.2
101368.68
101368.16
101367.64
101367.13
101366.62
101366.12
101365.62
101365.12
101364.63
101364.14
101363.66
101363.17
101362.7
101362.22
101361.75
101361.28
101360.82
101360.35
101359.89
101359.44
101358.99
101358.54
101358.09
101357.65
101357.21
101356.77
101356.34
101355.9
101355.48
101355.05
101354.63
101354.21
101353.79
101353.37
101352.96
101352.55
101352.14
101351.74
101351.34
101350.94
101350.54
101350.14
101349.75
101349.36
101348.97
101348.58
101348.2
101347.82
101347.44
101347.06
101346.69
101346.31
101345.94
101345.57
101345.21
101344.84
101344.48
101344.12
101343.76
101343.4
101343.05
101342.7
101342.34
101341.99
101341.65
101341.3
101340.96
101340.62
101340.27
101339.94
101339.6
101339.26
101338.93
101338.6
101338.27
101337.94
101337.61
101337.29
101336.96
101336.64
101336.32
101336
101335.68
101335.37
101335.05
101334.74
101334.43
101334.11
101333.81
101333.5
101333.19
101332.89
101332.58
101332.28
101331.98
101331.68
101331.38
101331.09
101330.79
101330.5
101330.2
101329.91
101329.62
101329.33
101329.04
101328.76
101328.47
101328.18
101327.9
101327.62
101327.34
101327.06
101326.78
101326.5
101326.23
101325.95
101325.68
101325.41
101325.17
101437.11
101435.64
101433.95
101432.4
101430.84
101429.29
101427.8
101426.38
101425.01
101423.7
101422.45
101421.23
101420.06
101418.93
101417.82
101416.74
101415.68
101414.64
101413.62
101412.61
101411.63
101410.66
101409.7
101408.75
101407.82
101406.9
101406
101405.1
101404.22
101403.35
101402.49
101401.64
101400.8
101399.97
101399.15
101398.33
101397.53
101396.74
101395.96
101395.18
101394.42
101393.66
101392.91
101392.17
101391.44
101390.71
101389.99
101389.28
101388.58
101387.88
101387.19
101386.51
101385.83
101385.16
101384.5
101383.84
101383.19
101382.55
101381.91
101381.28
101380.65
101380.03
101379.42
101378.81
101378.2
101377.6
101377.01
101376.42
101375.84
101375.26
101374.69
101374.12
101373.55
101373
101372.44
101371.89
101371.35
101370.8
101370.27
101369.74
101369.21
101368.68
101368.16
101367.65
101367.14
101366.63
101366.12
101365.62
101365.13
101364.63
101364.14
101363.66
101363.18
101362.7
101362.22
101361.75
101361.28
101360.82
101360.36
101359.9
101359.44
101358.99
101358.54
101358.09
101357.65
101357.21
101356.77
101356.34
101355.91
101355.48
101355.05
101354.63
101354.21
101353.79
101353.37
101352.96
101352.55
101352.14
101351.74
101351.34
101350.94
101350.54
101350.14
101349.75
101349.36
101348.97
101348.58
101348.2
101347.82
101347.44
101347.06
101346.69
101346.31
101345.94
101345.57
101345.21
101344.84
101344.48
101344.12
101343.76
101343.4
101343.05
101342.7
101342.34
101342
101341.65
101341.3
101340.96
101340.62
101340.28
101339.94
101339.6
101339.26
101338.93
101338.6
101338.27
101337.94
101337.61
101337.29
101336.96
101336.64
101336.32
101336
101335.68
101335.37
101335.05
101334.74
101334.43
101334.11
101333.81
101333.5
101333.19
101332.89
101332.58
101332.28
101331.98
101331.68
101331.38
101331.09
101330.79
101330.5
101330.2
101329.91
101329.62
101329.33
101329.04
101328.76
101328.47
101328.18
101327.9
101327.62
101327.34
101327.06
101326.78
101326.5
101326.23
101325.95
101325.68
101325.4
101325.16
101438.61
101435.81
101433.82
101432.22
101430.59
101429.01
101427.53
101426.13
101424.79
101423.52
101422.29
101421.11
101419.97
101418.86
101417.77
101416.7
101415.65
101414.63
101413.61
101412.62
101411.63
101410.66
101409.71
101408.77
101407.84
101406.92
101406.01
101405.12
101404.23
101403.36
101402.5
101401.65
101400.81
101399.98
101399.16
101398.35
101397.55
101396.75
101395.97
101395.2
101394.43
101393.67
101392.92
101392.18
101391.45
101390.72
101390
101389.29
101388.59
101387.89
101387.2
101386.52
101385.84
101385.17
101384.51
101383.85
101383.2
101382.56
101381.92
101381.28
101380.66
101380.04
101379.42
101378.81
101378.21
101377.61
101377.01
101376.42
101375.84
101375.26
101374.69
101374.12
101373.56
101373
101372.44
101371.89
101371.35
101370.81
101370.27
101369.74
101369.21
101368.68
101368.16
101367.65
101367.14
101366.63
101366.12
101365.62
101365.13
101364.63
101364.14
101363.66
101363.18
101362.7
101362.22
101361.75
101361.28
101360.82
101360.36
101359.9
101359.44
101358.99
101358.54
101358.09
101357.65
101357.21
101356.77
101356.34
101355.91
101355.48
101355.05
101354.63
101354.21
101353.79
101353.37
101352.96
101352.55
101352.14
101351.74
101351.34
101350.94
101350.54
101350.14
101349.75
101349.36
101348.97
101348.58
101348.2
101347.82
101347.44
101347.06
101346.69
101346.31
101345.94
101345.57
101345.21
101344.84
101344.48
101344.12
101343.76
101343.4
101343.05
101342.7
101342.34
101342
101341.65
101341.3
101340.96
101340.62
101340.28
101339.94
101339.6
101339.26
101338.93
101338.6
101338.27
101337.94
101337.61
101337.29
101336.96
101336.64
101336.32
101336
101335.68
101335.37
101335.05
101334.74
101334.43
101334.11
101333.81
101333.5
101333.19
101332.89
101332.58
101332.28
101331.98
101331.68
101331.38
101331.09
101330.79
101330.5
101330.2
101329.91
101329.62
101329.33
101329.04
101328.76
101328.47
101328.18
101327.9
101327.62
101327.34
101327.06
101326.78
101326.5
101326.22
101325.95
101325.67
101325.4
101325.13
101440.04
101435.64
101433.65
101432.1
101430.45
101428.89
101427.43
101426.05
101424.73
101423.47
101422.25
101421.08
101419.94
101418.84
101417.75
101416.69
101415.64
101414.61
101413.6
101412.61
101411.63
101410.66
101409.7
101408.76
101407.83
101406.91
101406.01
101405.11
101404.23
101403.36
101402.5
101401.65
101400.81
101399.98
101399.16
101398.35
101397.55
101396.75
101395.97
101395.19
101394.43
101393.67
101392.92
101392.18
101391.45
101390.72
101390
101389.29
101388.59
101387.89
101387.2
101386.52
101385.84
101385.17
101384.51
101383.85
101383.2
101382.56
101381.92
101381.28
101380.66
101380.04
101379.42
101378.81
101378.21
101377.61
101377.01
101376.43
101375.84
101375.26
101374.69
101374.12
101373.56
101373
101372.44
101371.89
101371.35
101370.81
101370.27
101369.74
101369.21
101368.69
101368.17
101367.65
101367.14
101366.63
101366.12
101365.62
101365.13
101364.63
101364.15
101363.66
101363.18
101362.7
101362.22
101361.75
101361.28
101360.82
101360.36
101359.9
101359.44
101358.99
101358.54
101358.09
101357.65
101357.21
101356.77
101356.34
101355.91
101355.48
101355.05
101354.63
101354.21
101353.79
101353.38
101352.96
101352.55
101352.14
101351.74
101351.34
101350.94
101350.54
101350.14
101349.75
101349.36
101348.97
101348.59
101348.2
101347.82
101347.44
101347.06
101346.69
101346.32
101345.94
101345.58
101345.21
101344.84
101344.48
101344.12
101343.76
101343.4
101343.05
101342.7
101342.35
101342
101341.65
101341.3
101340.96
101340.62
101340.28
101339.94
101339.6
101339.26
101338.93
101338.6
101338.27
101337.94
101337.61
101337.29
101336.96
101336.64
101336.32
101336
101335.68
101335.37
101335.05
101334.74
101334.43
101334.12
101333.81
101333.5
101333.19
101332.89
101332.58
101332.28
101331.98
101331.68
101331.38
101331.09
101330.79
101330.5
101330.2
101329.91
101329.62
101329.33
101329.04
101328.76
101328.47
101328.18
101327.9
101327.62
101327.34
101327.06
101326.78
101326.5
101326.22
101325.95
101325.67
101325.4
101325.12
101441.02
101435.29
101433.48
101432
101430.36
101428.81
101427.36
101425.99
101424.68
101423.43
101422.23
101421.06
101419.93
101418.83
101417.75
101416.69
101415.65
101414.62
101413.61
101412.61
101411.63
101410.66
101409.71
101408.77
101407.84
101406.92
101406.02
101405.12
101404.24
101403.37
101402.51
101401.65
101400.81
101399.98
101399.16
101398.35
101397.55
101396.76
101395.97
101395.2
101394.43
101393.67
101392.92
101392.18
101391.45
101390.72
101390
101389.29
101388.59
101387.89
101387.2
101386.52
101385.84
101385.17
101384.51
101383.85
101383.2
101382.56
101381.92
101381.29
101380.66
101380.04
101379.42
101378.81
101378.21
101377.61
101377.01
101376.43
101375.84
101375.26
101374.69
101374.12
101373.56
101373
101372.44
101371.89
101371.35
101370.81
101370.27
101369.74
101369.21
101368.68
101368.16
101367.65
101367.14
101366.63
101366.12
101365.62
101365.13
101364.63
101364.15
101363.66
101363.18
101362.7
101362.22
101361.75
101361.28
101360.82
101360.36
101359.9
101359.44
101358.99
101358.54
101358.09
101357.65
101357.21
101356.77
101356.34
101355.91
101355.48
101355.05
101354.63
101354.21
101353.79
101353.37
101352.96
101352.55
101352.14
101351.74
101351.34
101350.94
101350.54
101350.14
101349.75
101349.36
101348.97
101348.59
101348.2
101347.82
101347.44
101347.06
101346.69
101346.31
101345.94
101345.58
101345.21
101344.84
101344.48
101344.12
101343.76
101343.4
101343.05
101342.7
101342.34
101342
101341.65
101341.3
101340.96
101340.62
101340.28
101339.94
101339.6
101339.26
101338.93
101338.6
101338.27
101337.94
101337.61
101337.29
101336.96
101336.64
101336.32
101336
101335.68
101335.37
101335.05
101334.74
101334.43
101334.11
101333.81
101333.5
101333.19
101332.89
101332.58
101332.28
101331.98
101331.68
101331.38
101331.09
101330.79
101330.5
101330.2
101329.91
101329.62
101329.33
101329.04
101328.76
101328.47
101328.18
101327.9
101327.62
101327.34
101327.06
101326.78
101326.5
101326.22
101325.95
101325.67
101325.4
101325.12
101441.66
101435.19
101433.47
101432.01
101430.36
101428.81
101427.36
101425.98
101424.67
101423.42
101422.22
101421.06
101419.93
101418.82
101417.74
101416.68
101415.64
101414.62
101413.61
101412.61
101411.63
101410.66
101409.71
101408.76
101407.83
101406.92
101406.01
101405.12
101404.23
101403.36
101402.5
101401.65
101400.81
101399.98
101399.16
101398.35
101397.55
101396.75
101395.97
101395.2
101394.43
101393.67
101392.92
101392.18
101391.45
101390.72
101390
101389.29
101388.59
101387.89
101387.2
101386.52
101385.84
101385.17
101384.51
101383.85
101383.2
101382.55
101381.92
101381.28
101380.66
101380.04
101379.42
101378.81
101378.21
101377.61
101377.01
101376.42
101375.84
101375.26
101374.69
101374.12
101373.56
101373
101372.44
101371.89
101371.35
101370.81
101370.27
101369.74
101369.21
101368.68
101368.16
101367.65
101367.14
101366.63
101366.12
101365.62
101365.13
101364.63
101364.14
101363.66
101363.18
101362.7
101362.22
101361.75
101361.28
101360.82
101360.36
101359.9
101359.44
101358.99
101358.54
101358.09
101357.65
101357.21
101356.77
101356.34
101355.91
101355.48
101355.05
101354.63
101354.21
101353.79
101353.37
101352.96
101352.55
101352.14
101351.74
101351.34
101350.94
101350.54
101350.14
101349.75
101349.36
101348.97
101348.58
101348.2
101347.82
101347.44
101347.06
101346.69
101346.31
101345.94
101345.57
101345.21
101344.84
101344.48
101344.12
101343.76
101343.4
101343.05
101342.7
101342.34
101341.99
101341.65
101341.3
101340.96
101340.62
101340.27
101339.94
101339.6
101339.26
101338.93
101338.6
101338.27
101337.94
101337.61
101337.29
101336.96
101336.64
101336.32
101336
101335.68
101335.37
101335.05
101334.74
101334.42
101334.11
101333.81
101333.5
101333.19
101332.89
101332.58
101332.28
101331.98
101331.68
101331.38
101331.08
101330.79
101330.49
101330.2
101329.91
101329.62
101329.33
101329.04
101328.75
101328.47
101328.18
101327.9
101327.62
101327.34
101327.06
101326.78
101326.5
101326.22
101325.95
101325.67
101325.4
101325.12
)
;

boundaryField
{
    exteriorWall
    {
        type            zeroGradient;
    }
    inlet
    {
        type            zeroGradient;
    }
    outlet
    {
        type            fixedValue;
        value           uniform 101325;
    }
    walls
    {
        type            zeroGradient;
    }
    frontAndBack
    {
        type            empty;
    }
    frontAndBack_pos
    {
        type            wedge;
    }
    frontAndBack_neg
    {
        type            wedge;
    }
}


// ************************************************************************* //
