/*--------------------------------*- C++ -*----------------------------------*\
  =========                 |
  \\      /  F ield         | OpenFOAM: The Open Source CFD Toolbox
   \\    /   O peration     | Website:  https://openfoam.org
    \\  /    A nd           | Version:  10
     \\/     M anipulation  |
\*---------------------------------------------------------------------------*/
FoamFile
{
    format      ascii;
    class       surfaceScalarField;
    location    "1200/FLUID";
    object      phi;
}
// * * * * * * * * * * * * * * * * * * * * * * * * * * * * * * * * * * * * * //

dimensions      [1 0 -1 0 0 0 0];

internalField   nonuniform List<scalar> 
2194
(
6.9305892e-06
-1.8089422e-07
7.1648945e-06
-2.3430524e-07
7.3925174e-06
-2.2762298e-07
7.6021231e-06
-2.0960568e-07
7.7850644e-06
-1.8294136e-07
7.9378296e-06
-1.5276521e-07
8.0615513e-06
-1.2372164e-07
8.1590665e-06
-9.7515232e-08
8.2337823e-06
-7.4715712e-08
8.2892109e-06
-5.5428597e-08
8.3286517e-06
-3.9440866e-08
8.3550302e-06
-2.6378462e-08
8.3708458e-06
-1.5815595e-08
8.3781756e-06
-7.3297884e-09
8.3787013e-06
-5.2576926e-10
8.3738288e-06
4.872527e-09
8.3647832e-06
9.0456505e-09
8.3525815e-06
1.2201657e-08
8.3380505e-06
1.4531036e-08
8.3218591e-06
1.6191411e-08
8.3045459e-06
1.7313129e-08
8.2865423e-06
1.8003599e-08
8.2681917e-06
1.8350606e-08
8.2497663e-06
1.8425374e-08
8.2314809e-06
1.828544e-08
8.2135026e-06
1.79783e-08
8.1959596e-06
1.7542996e-08
8.1789491e-06
1.7010493e-08
8.1625435e-06
1.6405633e-08
8.146795e-06
1.5748515e-08
8.1317396e-06
1.5055391e-08
8.1174002e-06
1.4339381e-08
8.1037892e-06
1.3611044e-08
8.0909103e-06
1.2878833e-08
8.0787608e-06
1.2149471e-08
8.0673326e-06
1.142826e-08
8.0566132e-06
1.0719339e-08
8.0465873e-06
1.0025895e-08
8.037237e-06
9.3503523e-09
8.0285425e-06
8.6945251e-09
8.0204827e-06
8.0597751e-09
8.0130356e-06
7.4471345e-09
8.006178e-06
6.8575984e-09
7.9998863e-06
6.2916763e-09
7.9941373e-06
5.7489765e-09
7.9889089e-06
5.2284532e-09
7.9841796e-06
4.7292694e-09
7.9799289e-06
4.2506868e-09
7.9761369e-06
3.7919921e-09
7.9727844e-06
3.3524925e-09
7.9698529e-06
2.9315124e-09
7.9673245e-06
2.5283891e-09
7.965182e-06
2.1424708e-09
7.9634089e-06
1.7731162e-09
7.9619892e-06
1.4196964e-09
7.9609076e-06
1.0816004e-09
7.9601494e-06
7.582376e-10
7.9597003e-06
4.490692e-10
7.9595469e-06
1.5341258e-10
7.9596768e-06
-1.298623e-10
7.9600787e-06
-4.0191347e-10
7.9607421e-06
-6.6339952e-10
7.9616567e-06
-9.1466772e-10
7.9628128e-06
-1.1560157e-09
7.9642005e-06
-1.3877362e-09
7.9658106e-06
-1.6101229e-09
7.9676341e-06
-1.8234764e-09
7.9696622e-06
-2.0281053e-09
7.9718865e-06
-2.2243237e-09
7.974299e-06
-2.412448e-09
7.9768918e-06
-2.5927944e-09
7.9796574e-06
-2.765676e-09
7.9825888e-06
-2.931401e-09
7.9856791e-06
-3.0902708e-09
7.9889217e-06
-3.2425787e-09
7.9923103e-06
-3.3886092e-09
7.9958389e-06
-3.5286374e-09
7.9995019e-06
-3.6629282e-09
8.0032936e-06
-3.7917366e-09
8.0072089e-06
-3.915307e-09
8.0112428e-06
-4.0338739e-09
8.0153905e-06
-4.1476615e-09
8.0196473e-06
-4.2568841e-09
8.0240091e-06
-4.3617462e-09
8.0284715e-06
-4.462443e-09
8.0330307e-06
-4.5591605e-09
8.0376828e-06
-4.6520758e-09
8.0424241e-06
-4.7413576e-09
8.0472513e-06
-4.8271663e-09
8.0521609e-06
-4.9096547e-09
8.0571499e-06
-4.988968e-09
8.0622152e-06
-5.065244e-09
8.0673538e-06
-5.138614e-09
8.072563e-06
-5.2092027e-09
8.0778401e-06
-5.2771285e-09
8.0831826e-06
-5.3425039e-09
8.088588e-06
-5.4054358e-09
8.0940541e-06
-5.4660259e-09
8.0995784e-06
-5.5243707e-09
8.105159e-06
-5.5805618e-09
8.1107937e-06
-5.6346864e-09
8.1164805e-06
-5.6868273e-09
8.1222176e-06
-5.7370632e-09
8.128003e-06
-5.7854689e-09
8.1338352e-06
-5.8321156e-09
8.1397122e-06
-5.877071e-09
8.1456326e-06
-5.9203992e-09
8.1515948e-06
-5.9621616e-09
8.1575972e-06
-6.0024164e-09
8.1636384e-06
-6.0412191e-09
8.169717e-06
-6.0786224e-09
8.1758317e-06
-6.1146767e-09
8.1819812e-06
-6.1494298e-09
8.1881641e-06
-6.1829273e-09
8.1943793e-06
-6.215213e-09
8.2006256e-06
-6.2463281e-09
8.2069019e-06
-6.2763124e-09
8.2132071e-06
-6.3052037e-09
8.2195402e-06
-6.333038e-09
8.2259e-06
-6.3598499e-09
8.2322857e-06
-6.3856722e-09
8.2386962e-06
-6.4105366e-09
8.2451307e-06
-6.4344731e-09
8.2515882e-06
-6.4575106e-09
8.2580679e-06
-6.4796766e-09
8.2645689e-06
-6.5009977e-09
8.2710904e-06
-6.5214991e-09
8.2776316e-06
-6.5412052e-09
8.2841917e-06
-6.5601392e-09
8.2907701e-06
-6.5783235e-09
8.2973658e-06
-6.5957795e-09
8.3039784e-06
-6.6125278e-09
8.310607e-06
-6.6285883e-09
8.3172509e-06
-6.6439799e-09
8.3239097e-06
-6.6587211e-09
8.3305825e-06
-6.6728294e-09
8.3372688e-06
-6.6863218e-09
8.343968e-06
-6.6992147e-09
8.3506796e-06
-6.7115238e-09
8.3574028e-06
-6.7232643e-09
8.3641373e-06
-6.7344509e-09
8.3708824e-06
-6.7450977e-09
8.3776376e-06
-6.7552183e-09
8.3844024e-06
-6.7648261e-09
8.3911763e-06
-6.7739338e-09
8.3979589e-06
-6.7825536e-09
8.4047496e-06
-6.7906975e-09
8.411548e-06
-6.7983772e-09
8.4183536e-06
-6.8056037e-09
8.425166e-06
-6.8123879e-09
8.4319847e-06
-6.8187404e-09
8.4388094e-06
-6.8246713e-09
8.4456396e-06
-6.8301905e-09
8.4524749e-06
-6.8353076e-09
8.4593149e-06
-6.8400319e-09
8.4661593e-06
-6.8443725e-09
8.4730076e-06
-6.8483382e-09
8.4798596e-06
-6.8519375e-09
8.4867147e-06
-6.8551787e-09
8.4935728e-06
-6.8580699e-09
8.5004334e-06
-6.8606191e-09
8.5072963e-06
-6.8628338e-09
8.514161e-06
-6.8647216e-09
8.5210273e-06
-6.8662897e-09
8.5278948e-06
-6.8675453e-09
8.5347633e-06
-6.8684952e-09
8.5416325e-06
-6.8691463e-09
8.548502e-06
-6.8695052e-09
8.5553715e-06
-6.8695783e-09
8.5622409e-06
-6.8693719e-09
8.5691098e-06
-6.8688922e-09
8.575978e-06
-6.8681453e-09
8.5828451e-06
-6.8671369e-09
8.589711e-06
-6.865873e-09
8.5965753e-06
-6.864359e-09
8.6034379e-06
-6.8626005e-09
8.6102985e-06
-6.8606028e-09
8.6171569e-06
-6.858371e-09
8.6240128e-06
-6.8559102e-09
8.630866e-06
-6.8532248e-09
8.6377164e-06
-6.8503192e-09
8.6445635e-06
-6.8471967e-09
8.6514074e-06
-6.8438596e-09
8.6582477e-06
-6.8403079e-09
8.6650843e-06
-6.8365378e-09
8.6719168e-06
-6.8325387e-09
8.6787451e-06
-6.8282874e-09
8.6855688e-06
-6.8237382e-09
8.6923876e-06
-6.8188044e-09
8.6992009e-06
-6.8133244e-09
8.7060079e-06
-6.807001e-09
8.7128072e-06
-6.7992854e-09
8.7195964e-06
-6.7891931e-09
8.7263713e-06
-6.7748302e-09
8.7331244e-06
-6.7531377e-09
8.7398409e-06
-6.7165194e-09
8.7465003e-06
-6.6594112e-09
8.7530315e-06
-6.5311389e-09
8.75944e-06
-6.4085254e-09
-5.6286138e-09
1.1580258e-05
-5.5641647e-07
1.191788e-05
-5.7192753e-07
1.2185491e-05
-4.9523454e-07
1.2401275e-05
-4.253897e-07
1.2566319e-05
-3.4798478e-07
1.2687685e-05
-2.7413132e-07
1.2774218e-05
-2.1025463e-07
1.283349e-05
-1.5678714e-07
1.2871906e-05
-1.1313176e-07
1.2894776e-05
-7.8298303e-08
1.290635e-05
-5.1015171e-08
1.2909944e-05
-2.9972546e-08
1.2908083e-05
-1.3954912e-08
1.2902652e-05
-1.898061e-09
1.2895115e-05
7.010612e-09
1.2886586e-05
1.3401221e-08
1.2877779e-05
1.7853013e-08
1.2869163e-05
2.0818093e-08
1.286105e-05
2.2643246e-08
1.285364e-05
2.3601688e-08
1.2847046e-05
2.3907e-08
1.2841326e-05
2.3723757e-08
1.2836499e-05
2.3178143e-08
1.2832557e-05
2.2366911e-08
1.2829478e-05
2.1364472e-08
1.2827228e-05
2.0227982e-08
1.2825772e-05
1.8999672e-08
1.2825072e-05
1.7710684e-08
1.2825091e-05
1.6386224e-08
1.2825793e-05
1.5046201e-08
1.2827143e-05
1.3706115e-08
1.2829104e-05
1.2377945e-08
1.2831644e-05
1.1070865e-08
1.2834731e-05
9.7918124e-09
1.2838335e-05
8.5459479e-09
1.2842426e-05
7.3370149e-09
1.2846978e-05
6.1676312e-09
1.2851964e-05
5.0395261e-09
1.2857361e-05
3.9537363e-09
1.2863144e-05
2.9107885e-09
1.2869293e-05
1.9108158e-09
1.2875787e-05
9.5388909e-10
1.2882606e-05
3.8469433e-11
1.2889737e-05
-8.3971136e-10
1.289717e-05
-1.6838193e-09
1.2904892e-05
-2.4939465e-09
1.2912892e-05
-3.270188e-09
1.2921155e-05
-4.0129365e-09
1.292967e-05
-4.7227332e-09
1.2938423e-05
-5.4002508e-09
1.2947401e-05
-6.0462896e-09
1.2956591e-05
-6.661757e-09
1.2965981e-05
-7.247641e-09
1.2975559e-05
-7.8049851e-09
1.2985314e-05
-8.3348648e-09
1.2995234e-05
-8.8383666e-09
1.3005308e-05
-9.3165645e-09
1.3015528e-05
-9.7705078e-09
1.3025882e-05
-1.0201094e-08
1.3036362e-05
-1.060908e-08
1.3046955e-05
-1.0995496e-08
1.3057653e-05
-1.136165e-08
1.3068448e-05
-1.1708768e-08
1.3079329e-05
-1.2037938e-08
1.3090292e-05
-1.2350149e-08
1.3101328e-05
-1.264631e-08
1.3112432e-05
-1.292726e-08
1.3123598e-05
-1.3193781e-08
1.313482e-05
-1.34466e-08
1.3146094e-05
-1.3686405e-08
1.3157415e-05
-1.3913839e-08
1.3168779e-05
-1.4129513e-08
1.3180181e-05
-1.4334003e-08
1.3191619e-05
-1.4527856e-08
1.3203088e-05
-1.4711589e-08
1.3214585e-05
-1.4885695e-08
1.3226107e-05
-1.5050638e-08
1.3237651e-05
-1.5206863e-08
1.3249214e-05
-1.5354789e-08
1.3260793e-05
-1.5494815e-08
1.3272387e-05
-1.5627319e-08
1.3283992e-05
-1.5752661e-08
1.3295606e-05
-1.5871182e-08
1.3307228e-05
-1.5983204e-08
1.3318854e-05
-1.6089036e-08
1.3330484e-05
-1.6188966e-08
1.3342115e-05
-1.6283272e-08
1.3353746e-05
-1.6372214e-08
1.3365375e-05
-1.645604e-08
1.3377e-05
-1.6534986e-08
1.3388621e-05
-1.6609273e-08
1.3400234e-05
-1.6679113e-08
1.3411841e-05
-1.6744705e-08
1.3423438e-05
-1.680624e-08
1.3435024e-05
-1.6863896e-08
1.34466e-05
-1.6917844e-08
1.3458163e-05
-1.6968245e-08
1.3469712e-05
-1.7015252e-08
1.3481246e-05
-1.705901e-08
1.3492765e-05
-1.7099656e-08
1.3504268e-05
-1.7137321e-08
1.3515753e-05
-1.7172128e-08
1.3527221e-05
-1.7204194e-08
1.3538669e-05
-1.7233631e-08
1.3550097e-05
-1.7260544e-08
1.3561505e-05
-1.7285034e-08
1.3572892e-05
-1.7307196e-08
1.3584257e-05
-1.732712e-08
1.3595599e-05
-1.7344892e-08
1.3606919e-05
-1.7360595e-08
1.3618214e-05
-1.7374306e-08
1.3629486e-05
-1.7386098e-08
1.3640732e-05
-1.7396043e-08
1.3651954e-05
-1.7404207e-08
1.3663149e-05
-1.7410655e-08
1.3674318e-05
-1.7415447e-08
1.3685461e-05
-1.7418642e-08
1.3696576e-05
-1.7420295e-08
1.3707663e-05
-1.7420459e-08
1.3718722e-05
-1.7419184e-08
1.3729753e-05
-1.7416519e-08
1.3740755e-05
-1.7412511e-08
1.3751728e-05
-1.7407203e-08
1.3762671e-05
-1.7400638e-08
1.3773584e-05
-1.7392856e-08
1.3784467e-05
-1.7383897e-08
1.3795319e-05
-1.7373798e-08
1.3806141e-05
-1.7362594e-08
1.3816931e-05
-1.735032e-08
1.382769e-05
-1.733701e-08
1.3838417e-05
-1.7322694e-08
1.3849112e-05
-1.7307404e-08
1.3859774e-05
-1.7291169e-08
1.3870404e-05
-1.7274017e-08
1.3881001e-05
-1.7255976e-08
1.3891566e-05
-1.7237073e-08
1.3902097e-05
-1.7217332e-08
1.3912594e-05
-1.7196778e-08
1.3923058e-05
-1.7175435e-08
1.3933488e-05
-1.7153326e-08
1.3943884e-05
-1.7130473e-08
1.3954246e-05
-1.7106899e-08
1.3964573e-05
-1.7082622e-08
1.3974866e-05
-1.7057665e-08
1.3985124e-05
-1.7032046e-08
1.3995348e-05
-1.7005784e-08
1.4005536e-05
-1.6978898e-08
1.4015689e-05
-1.6951405e-08
1.4025807e-05
-1.6923324e-08
1.4035889e-05
-1.689467e-08
1.4045936e-05
-1.6865461e-08
1.4055947e-05
-1.6835712e-08
1.4065922e-05
-1.6805439e-08
1.4075861e-05
-1.6774657e-08
1.4085765e-05
-1.674338e-08
1.4095632e-05
-1.6711624e-08
1.4105463e-05
-1.6679402e-08
1.4115258e-05
-1.6646728e-08
1.4125016e-05
-1.6613614e-08
1.4134738e-05
-1.6580075e-08
1.4144424e-05
-1.6546123e-08
1.4154073e-05
-1.651177e-08
1.4163685e-05
-1.6477028e-08
1.417326e-05
-1.644191e-08
1.4182799e-05
-1.6406427e-08
1.4192301e-05
-1.637059e-08
1.4201767e-05
-1.633441e-08
1.4211195e-05
-1.6297899e-08
1.4220587e-05
-1.6261067e-08
1.4229941e-05
-1.6223925e-08
1.4239259e-05
-1.6186482e-08
1.4248539e-05
-1.614875e-08
1.4257783e-05
-1.6110738e-08
1.4266989e-05
-1.6072456e-08
1.4276159e-05
-1.6033913e-08
1.4285292e-05
-1.5995119e-08
1.4294387e-05
-1.5956083e-08
1.4303445e-05
-1.5916814e-08
1.4312467e-05
-1.587732e-08
1.4321451e-05
-1.583761e-08
1.4330399e-05
-1.5797691e-08
1.4339309e-05
-1.5757569e-08
1.4348182e-05
-1.5717248e-08
1.4357019e-05
-1.567673e-08
1.4365818e-05
-1.5636008e-08
1.4374581e-05
-1.5595067e-08
1.4383306e-05
-1.555387e-08
1.4391995e-05
-1.5512345e-08
1.4400647e-05
-1.5470353e-08
1.4409261e-05
-1.5427634e-08
1.4417838e-05
-1.538371e-08
1.4426376e-05
-1.5337689e-08
1.4434875e-05
-1.5287966e-08
1.4443331e-05
-1.5231367e-08
1.4451741e-05
-1.5162967e-08
1.4460093e-05
-1.5068587e-08
1.4468378e-05
-1.494395e-08
1.4476512e-05
-1.4665359e-08
1.4484605e-05
-1.4501198e-08
-1.2327632e-08
1.0182318e-05
-9.0365334e-07
1.0316895e-05
-7.0650533e-07
1.0371419e-05
-5.4975844e-07
1.0394599e-05
-4.4856943e-07
1.0399412e-05
-3.527981e-07
1.0396646e-05
-2.7136537e-07
1.0391482e-05
-2.050898e-07
1.0386318e-05
-1.5162345e-07
1.038256e-05
-1.093736e-07
1.0381039e-05
-7.6778034e-08
1.0382216e-05
-5.2191944e-08
1.0386291e-05
-3.4047132e-08
1.0393277e-05
-2.0941494e-08
1.040305e-05
-1.1670749e-08
1.0415313e-05
-5.2528122e-09
1.0429661e-05
-9.4611376e-10
1.044574e-05
1.7743066e-09
1.0463263e-05
3.2941359e-09
1.048197e-05
3.9371109e-09
1.0501615e-05
3.9560588e-09
1.0521986e-05
3.5364714e-09
1.0542896e-05
2.8139269e-09
1.0564186e-05
1.8880372e-09
1.0585719e-05
8.3407089e-10
1.0607373e-05
-2.9045179e-10
1.0629057e-05
-1.4556959e-09
1.0650701e-05
-2.6445572e-09
1.0672247e-05
-3.8353567e-09
1.0693645e-05
-5.0117974e-09
1.0714854e-05
-6.1623279e-09
1.0735839e-05
-7.2786953e-09
1.0756572e-05
-8.3551336e-09
1.0777031e-05
-9.3877787e-09
1.0797197e-05
-1.0374205e-08
1.0817056e-05
-1.1313073e-08
1.0836596e-05
-1.2203864e-08
1.0855811e-05
-1.3046678e-08
1.0874692e-05
-1.3842072e-08
1.0893237e-05
-1.4590935e-08
1.0911442e-05
-1.5294376e-08
1.0929307e-05
-1.5953599e-08
1.094683e-05
-1.6569943e-08
1.0964012e-05
-1.7142966e-08
1.0980845e-05
-1.7672787e-08
1.0997324e-05
-1.8163312e-08
1.1013449e-05
-1.8618711e-08
1.1029221e-05
-1.9041869e-08
1.1044643e-05
-1.9434886e-08
1.105972e-05
-1.9799422e-08
1.1074456e-05
-2.0136877e-08
1.1088858e-05
-2.0448518e-08
1.1102932e-05
-2.073554e-08
1.1116684e-05
-2.0999104e-08
1.1130119e-05
-2.1240343e-08
1.1143244e-05
-2.1460365e-08
1.1156066e-05
-2.1660256e-08
1.1168591e-05
-2.1841071e-08
1.1180824e-05
-2.2003848e-08
1.1192773e-05
-2.2149592e-08
1.1204443e-05
-2.2279187e-08
1.1215841e-05
-2.2393437e-08
1.1226972e-05
-2.2493219e-08
1.1237843e-05
-2.2579456e-08
1.1248458e-05
-2.2653034e-08
1.1258823e-05
-2.2714785e-08
1.1268942e-05
-2.2765485e-08
1.1278821e-05
-2.2805857e-08
1.1288463e-05
-2.2836572e-08
1.1297875e-05
-2.2858255e-08
1.130706e-05
-2.2871489e-08
1.1316023e-05
-2.287682e-08
1.1324768e-05
-2.2874758e-08
1.13333e-05
-2.2865781e-08
1.1341623e-05
-2.2850338e-08
1.134974e-05
-2.2828852e-08
1.1357656e-05
-2.2801719e-08
1.1365374e-05
-2.2769312e-08
1.13729e-05
-2.2731982e-08
1.1380235e-05
-2.2690057e-08
1.1387384e-05
-2.2643849e-08
1.139435e-05
-2.2593648e-08
1.1401137e-05
-2.2539729e-08
1.1407748e-05
-2.2482348e-08
1.1414187e-05
-2.2421748e-08
1.1420456e-05
-2.2358155e-08
1.1426559e-05
-2.2291783e-08
1.1432499e-05
-2.2222832e-08
1.1438278e-05
-2.215149e-08
1.14439e-05
-2.2077932e-08
1.1449367e-05
-2.2002324e-08
1.1454683e-05
-2.1924821e-08
1.1459849e-05
-2.1845568e-08
1.1464869e-05
-2.1764701e-08
1.1469745e-05
-2.1682346e-08
1.147448e-05
-2.1598625e-08
1.1479076e-05
-2.1513647e-08
1.1483535e-05
-2.1427517e-08
1.148786e-05
-2.1340333e-08
1.1492053e-05
-2.1252188e-08
1.1496117e-05
-2.1163165e-08
1.1500053e-05
-2.1073345e-08
1.1503863e-05
-2.0982804e-08
1.1507551e-05
-2.089161e-08
1.1511117e-05
-2.0799829e-08
1.1514564e-05
-2.0707523e-08
1.1517894e-05
-2.0614748e-08
1.1521108e-05
-2.0521558e-08
1.1524209e-05
-2.0428002e-08
1.1527198e-05
-2.0334127e-08
1.1530078e-05
-2.0239977e-08
1.1532849e-05
-2.0145592e-08
1.1535514e-05
-2.0051011e-08
1.1538074e-05
-1.9956268e-08
1.1540531e-05
-1.9861397e-08
1.1542887e-05
-1.9766429e-08
1.1545143e-05
-1.9671393e-08
1.1547301e-05
-1.9576315e-08
1.1549362e-05
-1.9481222e-08
1.1551327e-05
-1.9386136e-08
1.1553199e-05
-1.9291081e-08
1.1554979e-05
-1.9196076e-08
1.1556667e-05
-1.9101141e-08
1.1558266e-05
-1.9006294e-08
1.1559777e-05
-1.8911552e-08
1.1561201e-05
-1.8816931e-08
1.156254e-05
-1.8722445e-08
1.1563794e-05
-1.8628109e-08
1.1564966e-05
-1.8533936e-08
1.1566055e-05
-1.8439938e-08
1.1567064e-05
-1.8346126e-08
1.1567994e-05
-1.8252512e-08
1.1568846e-05
-1.8159104e-08
1.1569621e-05
-1.8065914e-08
1.1570319e-05
-1.7972949e-08
1.1570944e-05
-1.7880219e-08
1.1571494e-05
-1.778773e-08
1.1571973e-05
-1.7695491e-08
1.1572379e-05
-1.7603509e-08
1.1572716e-05
-1.7511789e-08
1.1572983e-05
-1.742034e-08
1.1573181e-05
-1.7329165e-08
1.1573313e-05
-1.7238272e-08
1.1573378e-05
-1.7147664e-08
1.1573377e-05
-1.7057348e-08
1.1573313e-05
-1.6967328e-08
1.1573185e-05
-1.6877608e-08
1.1572994e-05
-1.6788192e-08
1.1572742e-05
-1.6699086e-08
1.1572428e-05
-1.6610291e-08
1.1572056e-05
-1.6521813e-08
1.1571624e-05
-1.6433654e-08
1.1571134e-05
-1.6345819e-08
1.1570587e-05
-1.6258309e-08
1.1569983e-05
-1.6171127e-08
1.1569324e-05
-1.6084278e-08
1.156861e-05
-1.5997763e-08
1.1567842e-05
-1.5911585e-08
1.1567022e-05
-1.5825747e-08
1.1566148e-05
-1.5740251e-08
1.1565223e-05
-1.5655098e-08
1.1564247e-05
-1.5570293e-08
1.1563221e-05
-1.5485835e-08
1.1562146e-05
-1.5401728e-08
1.1561022e-05
-1.5317974e-08
1.155985e-05
-1.5234574e-08
1.1558631e-05
-1.5151531e-08
1.1557366e-05
-1.5068845e-08
1.1556054e-05
-1.498652e-08
1.1554698e-05
-1.4904556e-08
1.1553297e-05
-1.4822955e-08
1.1551852e-05
-1.4741719e-08
1.1550364e-05
-1.466085e-08
1.1548834e-05
-1.4580349e-08
1.1547262e-05
-1.4500218e-08
1.1545648e-05
-1.4420458e-08
1.1543994e-05
-1.4341071e-08
1.15423e-05
-1.4262058e-08
1.1540567e-05
-1.4183421e-08
1.1538794e-05
-1.410516e-08
1.1536984e-05
-1.4027277e-08
1.1535136e-05
-1.3949772e-08
1.1533251e-05
-1.3872645e-08
1.153133e-05
-1.3795893e-08
1.1529373e-05
-1.3719514e-08
1.152738e-05
-1.3643497e-08
1.1525353e-05
-1.3567827e-08
1.1523292e-05
-1.3492474e-08
1.1521197e-05
-1.3417379e-08
1.1519069e-05
-1.334244e-08
1.1516909e-05
-1.3267466e-08
1.1514717e-05
-1.3192114e-08
1.1512495e-05
-1.3115754e-08
1.1510244e-05
-1.3037311e-08
1.1507968e-05
-1.2954675e-08
1.150567e-05
-1.2865587e-08
1.1503363e-05
-1.276085e-08
1.1501077e-05
-1.2658e-08
1.1498866e-05
-1.2454466e-08
1.1496987e-05
-1.2622615e-08
-1.1071022e-08
7.4046433e-06
-1.0018072e-06
7.3190736e-06
-6.209356e-07
7.2394378e-06
-4.7012267e-07
7.1737739e-06
-3.8290555e-07
7.1245199e-06
-3.0354413e-07
7.0910712e-06
-2.3791665e-07
7.0701309e-06
-1.8414946e-07
7.0589889e-06
-1.404815e-07
7.0555991e-06
-1.0598378e-07
7.0583283e-06
-7.9507213e-08
7.0658648e-06
-5.9728482e-08
7.0771413e-06
-4.5323599e-08
7.091277e-06
-3.5077217e-08
7.1075578e-06
-2.795157e-08
7.1253973e-06
-2.3092242e-08
7.1442896e-06
-1.9838426e-08
7.163784e-06
-1.7720144e-08
7.1834859e-06
-1.6407794e-08
7.2030853e-06
-1.5662278e-08
7.2223466e-06
-1.53052e-08
7.2410901e-06
-1.5207051e-08
7.2591804e-06
-1.5276337e-08
7.2765176e-06
-1.5449226e-08
7.2930336e-06
-1.5681854e-08
7.3086875e-06
-1.5944426e-08
7.3234485e-06
-1.6216665e-08
7.3372911e-06
-1.6487191e-08
7.3502052e-06
-1.6749397e-08
7.3621911e-06
-1.6997695e-08
7.373257e-06
-1.7228197e-08
7.3834167e-06
-1.7438418e-08
7.3926885e-06
-1.7626929e-08
7.4010938e-06
-1.7793081e-08
7.4086563e-06
-1.793678e-08
7.4154016e-06
-1.8058323e-08
7.421356e-06
-1.8158276e-08
7.4265467e-06
-1.8237384e-08
7.4310012e-06
-1.8296512e-08
7.4347468e-06
-1.8336588e-08
7.437811e-06
-1.8358581e-08
7.4402209e-06
-1.8363467e-08
7.4420034e-06
-1.8352453e-08
7.4431869e-06
-1.8326523e-08
7.4437997e-06
-1.8285558e-08
7.4438666e-06
-1.8230187e-08
7.4434102e-06
-1.8162308e-08
7.4424519e-06
-1.8083547e-08
7.4410121e-06
-1.7995145e-08
7.4391108e-06
-1.7898078e-08
7.436767e-06
-1.7793143e-08
7.4339996e-06
-1.7681031e-08
7.4308264e-06
-1.7562364e-08
7.427265e-06
-1.7437726e-08
7.4233323e-06
-1.7307668e-08
7.4190447e-06
-1.7172719e-08
7.4144178e-06
-1.7033381e-08
7.4094669e-06
-1.6890136e-08
7.4042065e-06
-1.6743455e-08
7.3986507e-06
-1.6593803e-08
7.3928131e-06
-1.6441584e-08
7.3867068e-06
-1.6287124e-08
7.3803443e-06
-1.6130759e-08
7.3737377e-06
-1.5972849e-08
7.3668984e-06
-1.5813738e-08
7.3598374e-06
-1.5653746e-08
7.352565e-06
-1.5493168e-08
7.3450915e-06
-1.5332272e-08
7.3374262e-06
-1.5171302e-08
7.3295784e-06
-1.5010482e-08
7.3215569e-06
-1.4850013e-08
7.3133702e-06
-1.4690078e-08
7.3050263e-06
-1.4530845e-08
7.296533e-06
-1.4372463e-08
7.2878977e-06
-1.4215071e-08
7.2791276e-06
-1.4058792e-08
7.2702297e-06
-1.3903737e-08
7.2612104e-06
-1.3750006e-08
7.2520761e-06
-1.3597689e-08
7.2428329e-06
-1.3446867e-08
7.2334866e-06
-1.3297608e-08
7.224043e-06
-1.3149976e-08
7.2145072e-06
-1.3004025e-08
7.2048847e-06
-1.2859802e-08
7.1951803e-06
-1.2717347e-08
7.1853988e-06
-1.2576693e-08
7.1755449e-06
-1.2437869e-08
7.165623e-06
-1.2300897e-08
7.1556373e-06
-1.2165794e-08
7.1455919e-06
-1.2032573e-08
7.1354909e-06
-1.1901243e-08
7.1253378e-06
-1.1771808e-08
7.1151365e-06
-1.1644269e-08
7.1048905e-06
-1.1518624e-08
7.094603e-06
-1.1394866e-08
7.0842773e-06
-1.1272989e-08
7.0739167e-06
-1.1152981e-08
7.063524e-06
-1.1034829e-08
7.0531022e-06
-1.0918519e-08
7.042654e-06
-1.0804033e-08
7.0321822e-06
-1.0691352e-08
7.0216893e-06
-1.0580457e-08
7.0111778e-06
-1.0471326e-08
7.0006502e-06
-1.0363937e-08
6.9901086e-06
-1.0258266e-08
6.9795554e-06
-1.0154289e-08
6.9689926e-06
-1.005198e-08
6.9584224e-06
-9.951314e-09
6.9478466e-06
-9.8522642e-09
6.9372673e-06
-9.7548038e-09
6.9266862e-06
-9.6589057e-09
6.9161052e-06
-9.5645425e-09
6.9055259e-06
-9.4716867e-09
6.8949499e-06
-9.3803104e-09
6.8843789e-06
-9.2903861e-09
6.8738143e-06
-9.2018859e-09
6.8632577e-06
-9.1147822e-09
6.8527105e-06
-9.0290474e-09
6.8421739e-06
-8.9446543e-09
6.8316493e-06
-8.8615756e-09
6.821138e-06
-8.7797845e-09
6.8106412e-06
-8.6992542e-09
6.80016e-06
-8.6199584e-09
6.7896956e-06
-8.5418711e-09
6.779249e-06
-8.4649666e-09
6.7688213e-06
-8.3892197e-09
6.7584135e-06
-8.3146054e-09
6.7480265e-06
-8.2410993e-09
6.7376612e-06
-8.1686772e-09
6.7273186e-06
-8.0973155e-09
6.7169994e-06
-8.026991e-09
6.7067046e-06
-7.9576809e-09
6.6964349e-06
-7.8893629e-09
6.686191e-06
-7.8220151e-09
6.6759736e-06
-7.7556161e-09
6.6657836e-06
-7.690145e-09
6.6556214e-06
-7.6255812e-09
6.6454878e-06
-7.5619048e-09
6.6353834e-06
-7.4990962e-09
6.6253088e-06
-7.4371363e-09
6.6152644e-06
-7.3760063e-09
6.605251e-06
-7.3156882e-09
6.5952688e-06
-7.2561641e-09
6.5853186e-06
-7.1974167e-09
6.5754007e-06
-7.139429e-09
6.5655155e-06
-7.0821847e-09
6.5556636e-06
-7.0256676e-09
6.5458453e-06
-6.9698622e-09
6.5360609e-06
-6.9147531e-09
6.526311e-06
-6.8603257e-09
6.5165957e-06
-6.8065653e-09
6.5069155e-06
-6.7534581e-09
6.4972707e-06
-6.7009903e-09
6.4876615e-06
-6.6491486e-09
6.4780883e-06
-6.5979201e-09
6.4685513e-06
-6.5472922e-09
6.4590508e-06
-6.4972527e-09
6.449587e-06
-6.4477898e-09
6.4401602e-06
-6.3988918e-09
6.4307705e-06
-6.3505476e-09
6.4214181e-06
-6.3027463e-09
6.4121033e-06
-6.2554774e-09
6.4028262e-06
-6.2087305e-09
6.393587e-06
-6.1624957e-09
6.3843858e-06
-6.1167633e-09
6.3752227e-06
-6.0715241e-09
6.3660979e-06
-6.0267688e-09
6.3570116e-06
-5.9824888e-09
6.3479637e-06
-5.9386755e-09
6.3389545e-06
-5.8953207e-09
6.329984e-06
-5.8524163e-09
6.3210522e-06
-5.8099546e-09
6.3121593e-06
-5.7679281e-09
6.3033053e-06
-5.7263297e-09
6.2944902e-06
-5.6851522e-09
6.2857141e-06
-5.6443889e-09
6.2769771e-06
-5.6040331e-09
6.2682791e-06
-5.5640785e-09
6.2596202e-06
-5.5245187e-09
6.2510004e-06
-5.4853477e-09
6.2424197e-06
-5.4465594e-09
6.233878e-06
-5.4081476e-09
6.2253755e-06
-5.370106e-09
6.216912e-06
-5.3324277e-09
6.2084876e-06
-5.2951046e-09
6.2001023e-06
-5.2581268e-09
6.1917559e-06
-5.22148e-09
6.1834486e-06
-5.1851429e-09
6.1751803e-06
-5.1490809e-09
6.1669511e-06
-5.113235e-09
6.1587611e-06
-5.0775017e-09
6.1506107e-06
-5.0416988e-09
6.1425004e-06
-5.0054924e-09
6.1344315e-06
-4.9683507e-09
6.1264059e-06
-4.9290492e-09
6.1184276e-06
-4.8872952e-09
6.1105023e-06
-4.8355585e-09
6.1026454e-06
-4.8011308e-09
6.0948979e-06
-4.7069514e-09
6.0872647e-06
-4.9893851e-09
-5.7694933e-09
4.8160508e-06
-7.6945206e-07
4.6060563e-06
-4.1094103e-07
4.4515663e-06
-3.1563263e-07
4.3218635e-06
-2.5320274e-07
4.2177139e-06
-1.993946e-07
4.1352327e-06
-1.5543542e-07
4.0702174e-06
-1.1913416e-07
4.0194109e-06
-8.9675021e-08
3.9799342e-06
-6.6507074e-08
3.9492316e-06
-4.8804595e-08
3.9251363e-06
-3.5633103e-08
3.905879e-06
-2.6066369e-08
3.8900609e-06
-1.9259069e-08
3.8766093e-06
-1.4500029e-08
3.8647304e-06
-1.1213261e-08
3.8538478e-06
-8.9559175e-09
3.8435381e-06
-7.4104383e-09
3.8334845e-06
-6.354132e-09
3.8234565e-06
-5.634309e-09
3.813295e-06
-5.143664e-09
3.8028949e-06
-4.8069702e-09
3.7921912e-06
-4.5726053e-09
3.7811476e-06
-4.4056437e-09
3.7697489e-06
-4.2831473e-09
3.7579951e-06
-4.1906151e-09
3.7458953e-06
-4.1168909e-09
3.7334628e-06
-4.0546955e-09
3.7207142e-06
-4.000832e-09
3.7076694e-06
-3.9528544e-09
3.6943502e-06
-3.9089677e-09
3.6807797e-06
-3.8679138e-09
3.6669816e-06
-3.8288194e-09
3.6529796e-06
-3.7910825e-09
3.6387971e-06
-3.7542882e-09
3.6244569e-06
-3.7181478e-09
3.6099811e-06
-3.6824578e-09
3.5953908e-06
-3.6470723e-09
3.5807061e-06
-3.6118837e-09
3.5659464e-06
-3.5768096e-09
3.5511296e-06
-3.541789e-09
3.5362729e-06
-3.5067685e-09
3.5213923e-06
-3.4718439e-09
3.506503e-06
-3.437272e-09
3.4916201e-06
-3.4026092e-09
3.4767573e-06
-3.3673881e-09
3.4619268e-06
-3.3318607e-09
3.4471396e-06
-3.2962926e-09
3.4324052e-06
-3.2608286e-09
3.4177327e-06
-3.2255365e-09
3.40313e-06
-3.190437e-09
3.3886045e-06
-3.155527e-09
3.3741629e-06
-3.120796e-09
3.3598114e-06
-3.0862344e-09
3.3455556e-06
-3.0518367e-09
3.3314005e-06
-3.0176019e-09
3.3173506e-06
-2.9835336e-09
3.3034101e-06
-2.9496391e-09
3.2895826e-06
-2.9159339e-09
3.2758713e-06
-2.8824487e-09
3.2622789e-06
-2.8492022e-09
3.2488079e-06
-2.8161829e-09
3.2354606e-06
-2.7833874e-09
3.2222386e-06
-2.7508329e-09
3.2091434e-06
-2.7185394e-09
3.1961761e-06
-2.6865251e-09
3.1833378e-06
-2.6548065e-09
3.1706289e-06
-2.623398e-09
3.1580499e-06
-2.5923121e-09
3.145601e-06
-2.5615594e-09
3.1332821e-06
-2.5311495e-09
3.1210931e-06
-2.5010903e-09
3.1090337e-06
-2.4713894e-09
3.0971033e-06
-2.4420528e-09
3.0853013e-06
-2.4130862e-09
3.073627e-06
-2.3844943e-09
3.0620795e-06
-2.3562812e-09
3.050658e-06
-2.3284502e-09
3.0393613e-06
-2.3010041e-09
3.0281884e-06
-2.2739449e-09
3.017138e-06
-2.2472742e-09
3.0062091e-06
-2.2209929e-09
2.9954001e-06
-2.1951014e-09
2.9847099e-06
-2.1695996e-09
2.9741371e-06
-2.1444869e-09
2.9636801e-06
-2.1197623e-09
2.9533377e-06
-2.0954242e-09
2.9431083e-06
-2.0714708e-09
2.9329904e-06
-2.0478997e-09
2.9229825e-06
-2.0247084e-09
2.9130832e-06
-2.0018939e-09
2.9032908e-06
-1.9794529e-09
2.8936039e-06
-1.9573818e-09
2.884021e-06
-1.9356769e-09
2.8745404e-06
-1.9143341e-09
2.8651608e-06
-1.893349e-09
2.8558805e-06
-1.8727173e-09
2.8466981e-06
-1.8524342e-09
2.8376121e-06
-1.832495e-09
2.828621e-06
-1.8128948e-09
2.8197233e-06
-1.7936284e-09
2.8109175e-06
-1.7746906e-09
2.8022022e-06
-1.7560764e-09
2.7935761e-06
-1.7377802e-09
2.7850376e-06
-1.7197967e-09
2.7765854e-06
-1.7021204e-09
2.7682182e-06
-1.6847459e-09
2.7599346e-06
-1.6676676e-09
2.7517332e-06
-1.6508801e-09
2.7436128e-06
-1.6343777e-09
2.735572e-06
-1.6181551e-09
2.7276097e-06
-1.6022066e-09
2.7197245e-06
-1.5865268e-09
2.7119153e-06
-1.5711102e-09
2.7041809e-06
-1.5559514e-09
2.69652e-06
-1.5410451e-09
2.6889316e-06
-1.526386e-09
2.6814146e-06
-1.5119687e-09
2.6739677e-06
-1.497788e-09
2.66659e-06
-1.4838389e-09
2.6592803e-06
-1.4701162e-09
2.6520377e-06
-1.456615e-09
2.644861e-06
-1.4433303e-09
2.6377494e-06
-1.4302572e-09
2.6307018e-06
-1.4173911e-09
2.6237173e-06
-1.4047271e-09
2.616795e-06
-1.3922608e-09
2.6099339e-06
-1.3799875e-09
2.6031331e-06
-1.3679029e-09
2.5963918e-06
-1.3560026e-09
2.5897091e-06
-1.3442824e-09
2.5830841e-06
-1.332738e-09
2.5765161e-06
-1.3213655e-09
2.5700043e-06
-1.3101607e-09
2.5635478e-06
-1.2991198e-09
2.5571459e-06
-1.288239e-09
2.5507978e-06
-1.2775145e-09
2.5445029e-06
-1.2669427e-09
2.5382603e-06
-1.2565201e-09
2.5320694e-06
-1.2462432e-09
2.5259295e-06
-1.2361086e-09
2.5198399e-06
-1.226113e-09
2.5138e-06
-1.2162532e-09
2.5078091e-06
-1.2065261e-09
2.5018666e-06
-1.1969285e-09
2.4959719e-06
-1.1874576e-09
2.4901243e-06
-1.1781105e-09
2.4843234e-06
-1.1688843e-09
2.4785684e-06
-1.1597762e-09
2.4728588e-06
-1.1507837e-09
2.4671942e-06
-1.1419041e-09
2.4615739e-06
-1.1331349e-09
2.4559973e-06
-1.1244736e-09
2.4504641e-06
-1.115918e-09
2.4449737e-06
-1.1074656e-09
2.4395255e-06
-1.0991142e-09
2.4341191e-06
-1.0908616e-09
2.428754e-06
-1.0827057e-09
2.4234298e-06
-1.0746446e-09
2.4181459e-06
-1.0666761e-09
2.4129019e-06
-1.0587984e-09
2.4076975e-06
-1.0510095e-09
2.402532e-06
-1.0433077e-09
2.3974052e-06
-1.0356913e-09
2.3923166e-06
-1.0281585e-09
2.3872658e-06
-1.0207077e-09
2.3822524e-06
-1.0133373e-09
2.3772759e-06
-1.0060458e-09
2.3723361e-06
-9.9883173e-10
2.3674325e-06
-9.9169365e-10
2.3625647e-06
-9.8463022e-10
2.3577324e-06
-9.7764005e-10
2.3529352e-06
-9.7072196e-10
2.3481727e-06
-9.6387464e-10
2.3434447e-06
-9.5709691e-10
2.3387507e-06
-9.5038763e-10
2.3340904e-06
-9.437457e-10
2.3294635e-06
-9.3717003e-10
2.3248696e-06
-9.3065955e-10
2.3203085e-06
-9.2421318e-10
2.3157797e-06
-9.1782993e-10
2.3112831e-06
-9.1150863e-10
2.3068182e-06
-9.0524811e-10
2.3023849e-06
-8.9904696e-10
2.2979827e-06
-8.9290347e-10
2.2936113e-06
-8.8681518e-10
2.2892706e-06
-8.8077837e-10
2.2849603e-06
-8.7478712e-10
2.28068e-06
-8.6883131e-10
2.2764297e-06
-8.6289324e-10
2.2722091e-06
-8.5694127e-10
2.2680184e-06
-8.5092089e-10
2.2638576e-06
-8.4472113e-10
2.2597275e-06
-8.3822003e-10
2.2556293e-06
-8.308448e-10
2.2515653e-06
-8.2338229e-10
2.2475401e-06
-8.102694e-10
2.2435504e-06
-8.1143004e-10
2.239626e-06
-7.8264186e-10
2.2354867e-06
-8.4999485e-10
-1.9848845e-09
2.590376e-06
2.179435e-06
1.8638024e-06
1.6105996e-06
1.411205e-06
1.2557696e-06
1.1366354e-06
1.0469604e-06
9.8045335e-07
9.3164875e-07
8.9601565e-07
8.6994928e-07
8.5069021e-07
8.3619018e-07
8.2497692e-07
8.16021e-07
8.0861057e-07
8.0225643e-07
7.9662213e-07
7.9147846e-07
7.8667149e-07
7.8209889e-07
7.7769324e-07
7.734101e-07
7.6921948e-07
7.6510259e-07
7.6104789e-07
7.5704706e-07
7.5309421e-07
7.4918524e-07
7.4531733e-07
7.4148851e-07
7.3769742e-07
7.3394314e-07
7.3022499e-07
7.2654253e-07
7.2289546e-07
7.1928357e-07
7.1570676e-07
7.1216498e-07
7.0865821e-07
7.0518636e-07
7.0174909e-07
6.9834648e-07
6.9497909e-07
6.9164723e-07
6.8835094e-07
6.8509011e-07
6.8186458e-07
6.7867414e-07