/*--------------------------------*- C++ -*----------------------------------*\
  =========                 |
  \\      /  F ield         | OpenFOAM: The Open Source CFD Toolbox
   \\    /   O peration     | Website:  https://openfoam.org
    \\  /    A nd           | Version:  10
     \\/     M anipulation  |
\*---------------------------------------------------------------------------*/
FoamFile
{
    format      ascii;
    class       volScalarField;
    location    "1200/FLUID";
    object      rho;
}
// * * * * * * * * * * * * * * * * * * * * * * * * * * * * * * * * * * * * * //

dimensions      [1 -3 0 0 0 0 0];

internalField   nonuniform List<scalar> 
1200
(
1.2422676
1.2360065
1.2266742
1.2145084
1.1999887
1.1836496
1.1659756
1.147378
1.1281928
1.1086877
1.0890737
1.0695168
1.0501464
1.0310617
1.0123287
0.99395983
0.97602031
0.95856227
0.94162174
0.92522162
0.90937427
0.89408369
0.87934733
0.86515766
0.85150331
0.83837015
0.82574207
0.8136017
0.80193085
0.79071098
0.77992345
0.76954975
0.75957173
0.74997166
0.74073236
0.73183723
0.72327036
0.71501647
0.70706095
0.69938991
0.69199007
0.68484883
0.67795416
0.67129443
0.66485874
0.65863684
0.65261908
0.64679633
0.64115996
0.63570182
0.63041419
0.62528976
0.62032158
0.61550309
0.61082805
0.60629056
0.60188499
0.59760601
0.59344852
0.58940728
0.58547743
0.58165483
0.57793549
0.57431563
0.57079158
0.56735986
0.56401714
0.56076024
0.5575861
0.55449182
0.5514746
0.54853179
0.54566084
0.54285931
0.54012488
0.5374553
0.53484845
0.53230228
0.52981483
0.52738423
0.52500867
0.52268643
0.52041585
0.51819534
0.51602339
0.51389852
0.51181933
0.50978447
0.50779263
0.50584258
0.50393311
0.50206306
0.50023132
0.49843682
0.49667853
0.49495545
0.49326662
0.49161113
0.48998807
0.48839659
0.48683586
0.48530508
0.48380347
0.48233029
0.48088482
0.47946635
0.47807421
0.47670775
0.47536634
0.47404937
0.47275625
0.47148639
0.47023926
0.46901431
0.46781101
0.46662888
0.46546741
0.46432614
0.4632046
0.46210234
0.46101894
0.45995398
0.45890703
0.45787772
0.45686565
0.45587046
0.45489176
0.45392922
0.4529825
0.45205124
0.45113514
0.45023387
0.44934713
0.44847462
0.44761605
0.44677113
0.44593959
0.44512116
0.44431557
0.44352258
0.44274193
0.44197338
0.4412167
0.44047165
0.43973801
0.43901556
0.43830409
0.43760339
0.43691326
0.43623349
0.4355639
0.43490429
0.43425448
0.4336143
0.43298355
0.43236208
0.43174972
0.43114629
0.43055164
0.42996562
0.42938807
0.42881883
0.42825777
0.42770475
0.42715961
0.42662222
0.42609246
0.42557018
0.42505527
0.42454759
0.42404702
0.42355345
0.42306675
0.42258681
0.42211352
0.42164677
0.42118644
0.42073244
0.42028466
0.419843
0.41940735
0.41897763
0.41855373
0.41813557
0.41772305
0.41731608
0.41691458
0.41651845
0.41612762
0.41574199
0.4153615
0.41498606
0.41461559
0.41425002
0.41388927
0.4135333
0.41318207
0.41283596
0.4124984
0.41219978
1.2322326
1.2142123
1.1911875
1.1650501
1.1375178
1.1097751
1.0825475
1.0562529
1.0311046
1.0071883
0.98451424
0.96305125
0.94274605
0.92353156
0.90530527
0.8880415
0.87168537
0.85617818
0.84146332
0.82748708
0.81419912
0.80155265
0.78950437
0.77801436
0.76704573
0.75656439
0.74653927
0.73694191
0.72774614
0.71892785
0.71046481
0.70233646
0.6945238
0.68700919
0.6797763
0.67280995
0.66609601
0.65962133
0.65337366
0.64734157
0.64151436
0.63588202
0.63043497
0.62516256
0.62005728
0.61511196
0.61031973
0.605674
0.60116853
0.59679737
0.59255488
0.58843571
0.58443479
0.58054731
0.57676873
0.5730947
0.56952115
0.56604417
0.5626601
0.5593656
0.55615747
0.55303241
0.5499873
0.5470192
0.54412534
0.54130306
0.53854986
0.53586335
0.53324125
0.53068139
0.5281817
0.5257402
0.52335501
0.5210243
0.51874635
0.51651951
0.51434218
0.51221284
0.51013002
0.50809234
0.50609843
0.50414701
0.50223684
0.50036672
0.4985355
0.49674208
0.4949854
0.49326442
0.49157817
0.48992569
0.48830607
0.48671843
0.48516191
0.48363569
0.48213897
0.480671
0.47923103
0.47781834
0.47643225
0.47507209
0.47373721
0.47242699
0.47114082
0.46987812
0.46863832
0.46742088
0.46622525
0.46505094
0.46389743
0.46276425
0.46165093
0.460557
0.45948204
0.45842561
0.4573873
0.4563667
0.45536342
0.45437709
0.45340733
0.45245378
0.4515161
0.45059394
0.44968697
0.44879488
0.44791736
0.44705409
0.44620479
0.44536916
0.44454693
0.44373783
0.44294158
0.44215793
0.44138663
0.44062744
0.43988011
0.43914441
0.43842011
0.437707
0.43700485
0.43631346
0.43563262
0.43496214
0.4343018
0.43365143
0.43301084
0.43237984
0.43175826
0.43114593
0.43054267
0.42994832
0.42936271
0.4287857
0.42821712
0.42765683
0.42710468
0.42656052
0.42602421
0.42549561
0.4249746
0.42446103
0.42395478
0.42345572
0.42296374
0.4224787
0.42200049
0.421529
0.42106411
0.42060571
0.42015369
0.41970795
0.41926838
0.41883488
0.41840734
0.41798569
0.41756981
0.41715961
0.416755
0.41635589
0.4159622
0.41557383
0.41519071
0.41481274
0.41443986
0.41407197
0.413709
0.41335087
0.41299751
0.41264885
0.4123048
0.41196531
0.41163031
0.41129971
0.41097347
0.41065151
0.41033378
0.41002022
0.40971084
0.40940601
0.40910887
0.40884655
1.202211
1.1580706
1.1118592
1.0675904
1.0270994
0.99076792
0.95837518
0.92949414
0.90365492
0.88041741
0.85939737
0.84027047
0.82276764
0.80666962
0.79182163
0.77805384
0.76521882
0.75320682
0.74192821
0.73130619
0.72127503
0.71177826
0.70276709
0.69419913
0.68603663
0.67824568
0.67079884
0.66367126
0.65684057
0.65028661
0.64399118
0.63793781
0.63211157
0.62649885
0.62108725
0.61586541
0.61082291
0.60595015
0.6012383
0.59667917
0.5922652
0.58798936
0.58384528
0.5798284
0.57593228
0.5721511
0.56847955
0.56491279
0.56144628
0.55807584
0.55479751
0.55160759
0.5485026
0.54547923
0.54253438
0.5396651
0.53686861
0.53414225
0.53148353
0.52889007
0.52635963
0.52389005
0.52147928
0.51912534
0.51682634
0.51458048
0.51238604
0.51024136
0.50814487
0.50609507
0.50409051
0.5021298
0.50021162
0.4983347
0.49649781
0.49469979
0.4929395
0.49121587
0.48952785
0.48787444
0.48625468
0.48466764
0.48311243
0.48158818
0.48009406
0.47862928
0.47719305
0.47578464
0.47440333
0.47304841
0.47171922
0.4704151
0.46913543
0.46787961
0.46664703
0.46543715
0.46424939
0.46308324
0.46193818
0.4608137
0.45970933
0.45862458
0.45755902
0.45651219
0.45548366
0.45447303
0.45347989
0.45250384
0.45154451
0.45060152
0.44967453
0.44876317
0.44786712
0.44698604
0.44611961
0.44526753
0.44442948
0.44360517
0.44279433
0.44199666
0.4412119
0.44043978
0.43968005
0.43893246
0.43819675
0.4374727
0.43676007
0.43605864
0.43536818
0.43468848
0.43401934
0.43336054
0.43271189
0.43207319
0.43144426
0.43082491
0.43021496
0.42961423
0.42902256
0.42843977
0.42786569
0.42730018
0.42674307
0.4261942
0.42565344
0.42512063
0.42459564
0.42407831
0.42356853
0.42306614
0.42257103
0.42208306
0.42160211
0.42112806
0.42066079
0.42020018
0.41974611
0.41929849
0.41885719
0.41842211
0.41799314
0.41757018
0.41715314
0.41674191
0.41633639
0.4159365
0.41554213
0.41515321
0.41476963
0.41439132
0.41401818
0.41365014
0.41328711
0.41292901
0.41257577
0.4122273
0.41188354
0.4115444
0.41120981
0.41087971
0.41055402
0.41023267
0.40991561
0.40960275
0.40929404
0.40898942
0.40868882
0.40839218
0.40809945
0.40781055
0.40752544
0.40724407
0.40696637
0.40669229
0.40642178
0.40615482
0.40589144
0.40563218
0.40538051
0.40516143
1.1488871
1.0759147
1.0139377
0.96288176
0.92078331
0.88565062
0.85592025
0.8304151
0.80825028
0.78875726
0.77142708
0.75586899
0.74178062
0.72892683
0.7171274
0.70623337
0.69612556
0.68669812
0.67786402
0.66955323
0.66170806
0.65428028
0.64722907
0.64051969
0.63412289
0.62801401
0.622169
0.61656725
0.61119073
0.60602352
0.60105146
0.59626186
0.59164332
0.58718556
0.58287924
0.57871585
0.57468766
0.57078754
0.56700897
0.56334592
0.55979282
0.55634455
0.55299638
0.54974422
0.54658398
0.54351168
0.54052359
0.53761615
0.53478607
0.53203024
0.52934572
0.52672978
0.52417983
0.52169342
0.51926824
0.5169021
0.51459294
0.51233879
0.51013777
0.50798811
0.50588814
0.50383624
0.50183089
0.49987059
0.49795395
0.49607962
0.49424629
0.49245273
0.49069774
0.48898019
0.48729896
0.48565302
0.48404134
0.48246296
0.48091693
0.47940236
0.47791837
0.47646413
0.47503885
0.47364173
0.47227204
0.47092905
0.46961207
0.46832042
0.46705346
0.46581056
0.46459111
0.46339452
0.46222024
0.46106771
0.4599364
0.45882579
0.4577354
0.45666474
0.45561334
0.45458075
0.45356653
0.45257026
0.45159152
0.45062992
0.44968506
0.44875658
0.44784409
0.44694726
0.44606573
0.44519917
0.44434725
0.44350965
0.44268608
0.44187622
0.44107979
0.44029651
0.43952609
0.43876828
0.43802281
0.43728942
0.43656788
0.43585793
0.43515934
0.43447189
0.43379536
0.43312952
0.43247416
0.43182908
0.43119408
0.43056896
0.42995353
0.4293476
0.428751
0.42816354
0.42758504
0.42701535
0.4264543
0.42590172
0.42535746
0.42482137
0.42429329
0.42377307
0.42326058
0.42275568
0.42225822
0.42176807
0.42128511
0.4208092
0.42034022
0.41987805
0.41942257
0.41897366
0.41853121
0.4180951
0.41766523
0.41724148
0.41682376
0.41641196
0.41600598
0.41560572
0.41521109
0.41482199
0.41443833
0.41406002
0.41368697
0.41331909
0.4129563
0.41259851
0.41224565
0.41189764
0.41155438
0.41121582
0.41088187
0.41055246
0.41022751
0.40990696
0.40959074
0.40927878
0.40897101
0.40866736
0.40836778
0.4080722
0.40778055
0.40749278
0.40720883
0.40692863
0.40665214
0.4063793
0.40611004
0.40584433
0.40558209
0.40532329
0.40506787
0.40481578
0.40456698
0.4043214
0.40407902
0.40383978
0.40360364
0.4033706
0.40314079
0.4029151
0.40269829
0.40251631
1.0825669
0.99371408
0.93017451
0.8822572
0.84452061
0.81386265
0.78835888
0.7667298
0.74808268
0.73177395
0.71732902
0.70439212
0.69269309
0.68202493
0.67222894
0.66317873
0.65477295
0.64692571
0.63956541
0.63263342
0.62608149
0.61986951
0.61396381
0.60833586
0.60296158
0.59782052
0.59289389
0.58816513
0.58361963
0.57924453
0.5750284
0.57096102
0.56703323
0.56323679
0.5595642
0.55600866
0.55256397
0.54922443
0.54598484
0.54284036
0.53978655
0.5368193
0.53393483
0.53112978
0.52840092
0.52574511
0.52315939
0.52064093
0.51818706
0.51579527
0.51346321
0.51118864
0.50896947
0.50680372
0.50468951
0.50262506
0.50060869
0.49863879
0.49671384
0.4948324
0.49299308
0.49119457
0.48943562
0.48771501
0.48603159
0.48438425
0.48277192
0.48119359
0.47964826
0.47813499
0.47665287
0.47520103
0.47377862
0.47238484
0.47101891
0.46968007
0.46836761
0.46708082
0.46581903
0.46458158
0.46336787
0.46217727
0.4610092
0.4598631
0.45873843
0.45763464
0.45655124
0.45548772
0.45444361
0.45341844
0.45241177
0.45142315
0.45045217
0.44949841
0.44856149
0.447641
0.44673659
0.44584789
0.44497454
0.4441162
0.44327255
0.44244326
0.44162802
0.44082651
0.44003846
0.43926356
0.43850154
0.43775212
0.43701505
0.43629006
0.4355769
0.43487534
0.43418512
0.43350602
0.43283782
0.43218029
0.43153323
0.43089641
0.43026965
0.42965273
0.42904547
0.42844768
0.42785918
0.42727979
0.42670932
0.42614762
0.42559451
0.42504984
0.42451344
0.42398516
0.42346484
0.42295235
0.42244753
0.42195025
0.42146037
0.42097775
0.42050226
0.42003378
0.41957218
0.41911733
0.41866912
0.41822742
0.41779213
0.41736313
0.41694032
0.41652357
0.4161128
0.4157079
0.41530876
0.41491528
0.41452738
0.41414496
0.41376792
0.41339618
0.41302964
0.41266822
0.41231183
0.41196039
0.41161383
0.41127205
0.41093498
0.41060255
0.41027468
0.40995129
0.40963231
0.40931768
0.40900732
0.40870117
0.40839916
0.40810121
0.40780728
0.4075173
0.40723119
0.40694892
0.4066704
0.4063956
0.40612444
0.40585688
0.40559286
0.40533232
0.40507522
0.40482149
0.4045711
0.40432399
0.4040801
0.4038394
0.40360184
0.40336737
0.40313594
0.40290751
0.40268204
0.40245948
0.40223979
0.40202294
0.40180888
0.40159765
0.40138942
0.40118539
0.40099141
0.40083501
1.0182994
0.92960561
0.87173105
0.82925556
0.79614025
0.76935983
0.7471289
0.72829137
0.71205196
0.69784198
0.68524456
0.67394873
0.66371934
0.65437693
0.64578413
0.63783219
0.63043402
0.62351622
0.61701753
0.6108877
0.60508536
0.59957615
0.59433126
0.58932627
0.58454062
0.57995677
0.57555874
0.57133237
0.56726516
0.56334611
0.55956541
0.55591432
0.55238501
0.54897039
0.54566405
0.54246016
0.53935339
0.53633887
0.5334121
0.53056895
0.5278056
0.52511852
0.52250445
0.51996049
0.51748385
0.51507187
0.51272196
0.51043168
0.50819874
0.50602094
0.50389625
0.50182272
0.49979855
0.49782199
0.49589143
0.4940053
0.49216215
0.49036057
0.48859923
0.48687686
0.48519227
0.48354431
0.48193186
0.48035387
0.47880933
0.47729726
0.47581672
0.47436682
0.47294668
0.47155547
0.47019239
0.46885667
0.46754756
0.46626434
0.46500634
0.46377287
0.46256331
0.46137702
0.46021341
0.45907191
0.45795195
0.456853
0.45577453
0.45471604
0.45367705
0.45265708
0.45165567
0.45067239
0.44970679
0.44875848
0.44782704
0.44691208
0.44601324
0.44513013
0.4442624
0.44340971
0.44257171
0.4417481
0.44093854
0.44014273
0.43936037
0.43859117
0.43783485
0.43709113
0.43635974
0.43564043
0.43493295
0.43423704
0.43355247
0.432879
0.4322164
0.43156446
0.43092297
0.4302917
0.42967045
0.42905904
0.42845725
0.42786491
0.42728182
0.42670782
0.42614271
0.42558634
0.42503853
0.42449912
0.42396795
0.42344487
0.42292972
0.42242236
0.42192264
0.42143042
0.42094556
0.42046793
0.4199974
0.41953383
0.41907711
0.4186271
0.4181837
0.41774677
0.41731621
0.41689191
0.41647375
0.41606162
0.41565543
0.41525507
0.41486043
0.41447143
0.41408795
0.41370992
0.41333724
0.41296981
0.41260754
0.41225036
0.41189818
0.41155091
0.41120847
0.41087079
0.41053777
0.41020936
0.40988547
0.40956602
0.40925096
0.4089402
0.40863367
0.40833132
0.40803307
0.40773885
0.40744861
0.40716228
0.4068798
0.40660111
0.40632615
0.40605486
0.40578718
0.40552307
0.40526246
0.4050053
0.40475154
0.40450112
0.404254
0.40401013
0.40376946
0.40353193
0.40329751
0.40306614
0.40283779
0.4026124
0.40238994
0.40217036
0.40195361
0.40173966
0.40152847
0.40132
0.40111421
0.40091105
0.40071052
0.40051262
0.40031757
0.40012663
0.39994592
0.39980308
)
;

boundaryField
{
    exteriorWall
    {
        type            calculated;
        value           nonuniform List<scalar> 
200
(
0.384346
0.38432151
0.38431499
0.38430944
0.38430322
0.38429733
0.38429184
0.38428662
0.38428166
0.38427692
0.38427236
0.38426795
0.38426367
0.38425949
0.3842554
0.38425138
0.38424743
0.38424355
0.38423972
0.38423595
0.38423223
0.38422856
0.38422494
0.38422138
0.38421785
0.38421438
0.38421095
0.38420756
0.38420421
0.38420091
0.38419765
0.38419443
0.38419124
0.3841881
0.38418499
0.38418191
0.38417888
0.38417587
0.38417291
0.38416997
0.38416707
0.38416419
0.38416135
0.38415854
0.38415576
0.38415301
0.38415029
0.38414759
0.38414493
0.38414229
0.38413967
0.38413708
0.38413452
0.38413198
0.38412947
0.38412698
0.38412452
0.38412208
0.38411966
0.38411726
0.38411488
0.38411253
0.3841102
0.38410789
0.3841056
0.38410333
0.38410108
0.38409885
0.38409664
0.38409445
0.38409227
0.38409012
0.38408798
0.38408586
0.38408376
0.38408168
0.38407961
0.38407756
0.38407553
0.38407351
0.38407151
0.38406952
0.38406755
0.3840656
0.38406366
0.38406173
0.38405982
0.38405792
0.38405604
0.38405417
0.38405232
0.38405048
0.38404865
0.38404684
0.38404504
0.38404325
0.38404148
0.38403971
0.38403796
0.38403623
0.3840345
0.38403279
0.38403108
0.38402939
0.38402771
0.38402605
0.38402439
0.38402274
0.38402111
0.38401948
0.38401787
0.38401626
0.38401467
0.38401309
0.38401151
0.38400995
0.3840084
0.38400685
0.38400532
0.38400379
0.38400228
0.38400077
0.38399927
0.38399778
0.3839963
0.38399483
0.38399337
0.38399191
0.38399047
0.38398903
0.3839876
0.38398618
0.38398477
0.38398336
0.38398196
0.38398057
0.38397919
0.38397782
0.38397645
0.38397509
0.38397374
0.38397239
0.38397105
0.38396972
0.3839684
0.38396708
0.38396577
0.38396447
0.38396317
0.38396188
0.3839606
0.38395932
0.38395805
0.38395679
0.38395553
0.38395428
0.38395303
0.38395179
0.38395056
0.38394933
0.38394811
0.38394689
0.38394568
0.38394448
0.38394328
0.38394209
0.3839409
0.38393972
0.38393854
0.38393737
0.3839362
0.38393504
0.38393389
0.38393274
0.38393159
0.38393045
0.38392932
0.38392819
0.38392706
0.38392594
0.38392483
0.38392372
0.38392261
0.38392151
0.38392041
0.38391932
0.38391823
0.38391715
0.38391607
0.383915
0.38391393
0.38391287
0.3839118
0.38391075
0.3839097
0.38390865
0.3839076
0.38390656
0.38390553
0.38390447
)
;
    }
    inlet
    {
        type            calculated;
        value           nonuniform List<scalar> 6(1.2464958 1.2465063 1.2465247 1.2465423 1.2465543 1.2465622);
    }
    outlet
    {
        type            calculated;
        value           nonuniform List<scalar> 6(0.41219909 0.40884592 0.40516092 0.40251584 0.40083453 0.3998026);
    }
    walls
    {
        type            calculated;
        value           nonuniform List<scalar> 0();
    }
    frontAndBack
    {
        type            empty;
    }
    frontAndBack_pos
    {
        type            wedge;
    }
    frontAndBack_neg
    {
        type            wedge;
    }
}


// ************************************************************************* //
