/*--------------------------------*- C++ -*----------------------------------*\
  =========                 |
  \\      /  F ield         | OpenFOAM: The Open Source CFD Toolbox
   \\    /   O peration     | Website:  https://openfoam.org
    \\  /    A nd           | Version:  10
     \\/     M anipulation  |
\*---------------------------------------------------------------------------*/
FoamFile
{
    format      ascii;
    class       volScalarField;
    location    "1200/FLUID";
    object      T;
}
// * * * * * * * * * * * * * * * * * * * * * * * * * * * * * * * * * * * * * //

dimensions      [0 0 0 1 0 0 0];

internalField   nonuniform List<scalar> 
1200
(
301.0211
302.54339
304.84074
307.88983
311.61062
315.90732
320.69119
325.88461
331.42186
337.24816
343.31761
349.59123
356.03543
362.62148
369.32769
376.149
383.05869
390.03122
397.04418
404.07801
411.11571
418.14257
425.14589
432.11479
439.03995
445.91351
452.72881
459.48026
466.16321
472.77381
479.30892
485.76602
492.14315
498.43878
504.65182
510.78153
516.82747
522.78945
528.66755
534.46199
540.17321
545.80177
551.34841
556.81411
562.19989
567.50672
572.73561
577.88758
582.96368
587.96497
592.89252
597.74743
602.53079
607.24372
611.88732
616.46271
620.971
625.4133
629.79077
634.10494
638.35724
642.54855
646.67978
650.75184
654.76566
658.72217
662.62228
666.46694
670.25704
673.99349
677.6772
681.30904
684.88988
688.42059
691.902
695.33495
698.72025
702.0587
705.35109
708.59819
711.80074
714.95951
718.0752
721.14853
724.18021
727.17091
730.1213
733.03204
735.90378
738.73714
741.53273
744.29118
747.01306
749.69896
752.34944
754.96507
757.54639
760.09393
762.60823
765.08978
767.53911
769.95669
772.34303
774.69858
777.02383
779.31921
781.58519
783.82221
786.03068
788.21105
790.36371
792.48909
794.58757
796.65956
798.70543
800.72557
802.72035
804.69014
806.63528
808.55614
810.45306
812.32637
814.17642
816.00353
817.80803
819.59022
821.35043
823.08895
824.80609
826.50215
828.17741
829.83216
831.46669
833.08127
834.67616
836.25165
837.80799
839.34544
840.86426
842.36469
843.84699
845.3114
846.75815
848.18748
849.59963
850.99482
852.37328
853.73522
855.08086
856.41043
857.72412
859.02215
860.30472
861.57204
862.82429
864.06169
865.28441
866.49265
867.6866
868.86644
870.03235
871.18451
872.3231
873.44829
874.56025
875.65915
876.74515
877.81842
878.87912
879.92741
880.96345
881.98738
882.99937
883.99956
884.9881
885.96513
886.9308
887.88525
888.82862
889.76105
890.68267
891.59361
892.49402
893.38401
894.26371
895.13326
895.99277
896.84236
897.68217
898.51231
899.33289
900.14403
900.94584
901.73843
902.52191
903.29636
904.06176
904.81727
905.55525
906.20918
303.47508
307.97454
313.92224
320.96005
328.72347
336.93591
345.40524
353.99888
362.62788
371.23393
379.779
388.23829
396.59573
404.84254
412.98863
421.01275
428.90807
436.67202
444.30374
451.80355
459.17263
466.41274
473.52599
480.51473
487.38154
494.12918
500.76026
507.27729
513.68276
519.97906
526.16857
532.25361
538.23645
544.1193
549.90434
555.59367
561.18937
566.69343
572.10783
577.43447
582.6752
587.83188
592.90644
597.90244
602.82095
607.6631
612.43014
617.12336
621.74409
626.29367
630.77343
635.18469
639.52877
643.80695
648.02049
652.17062
656.25857
660.2855
664.25255
668.16063
672.01069
675.80393
679.54153
683.22457
686.85413
690.43121
693.9568
697.43186
700.8573
704.23402
707.56289
710.84478
714.08049
717.27084
720.41661
723.51859
726.5775
729.59409
732.56908
735.50316
738.39702
741.25132
744.06673
746.84388
749.58339
752.28589
754.95197
757.58222
760.17722
762.73752
765.26369
767.75625
770.21574
772.64268
775.03758
777.40093
779.73323
782.03495
784.30655
786.54851
788.76128
790.94529
793.10097
795.22877
797.32909
799.40234
801.44893
803.46925
805.46369
807.43263
809.37645
811.2955
813.19016
815.06078
816.90769
818.73126
820.5318
822.30965
824.06514
825.79858
827.51029
829.20057
830.86972
832.51805
834.14584
835.75339
837.34096
838.90885
840.45733
841.98665
843.4971
844.98892
846.46238
847.91772
849.35519
850.77504
852.1775
853.56281
854.93121
856.28291
857.61816
858.93715
860.24013
861.52729
862.79885
864.05502
865.296
866.522
867.73321
868.92982
870.11203
871.28004
872.43402
873.57415
874.70063
875.81363
876.91332
877.99988
879.07347
880.13428
881.18245
882.21816
883.24156
884.25281
885.25208
886.23951
887.21525
888.17945
889.13227
890.07384
891.00431
891.92381
892.8325
893.7305
894.61795
895.49498
896.36172
897.2183
898.06486
898.9015
899.72837
900.54557
901.35323
902.15147
902.94039
903.72013
904.49079
905.25248
906.00531
906.74939
907.48482
908.21172
908.93018
909.64029
910.34216
911.03585
911.72132
912.3977
913.05789
913.6415
311.05807
322.90528
336.31937
350.25968
364.06199
377.40629
390.1568
402.2741
413.77132
424.68696
435.06915
444.96735
454.42807
463.49161
472.1778
480.528
488.58286
496.36966
503.91031
511.22444
518.32929
525.23999
531.96982
538.53051
544.93297
551.18758
557.30158
563.28182
569.13461
574.86573
580.48049
585.98373
591.3799
596.67311
601.86711
606.96541
611.97123
616.88758
621.71728
626.46293
631.127
635.71177
640.21927
644.6498
649.00609
653.2905
657.50514
661.65188
665.73246
669.74848
673.70148
677.59289
681.4241
685.19643
688.91114
692.56943
696.17249
699.72143
703.21733
706.66121
710.05405
713.39681
716.69045
719.93591
723.13409
726.28588
729.39215
732.45372
735.47142
738.44603
741.37834
744.26908
747.119
749.9288
752.69918
755.43083
758.12439
760.78052
763.39985
765.98299
768.53054
771.0431
773.52124
775.96552
778.3765
780.75471
783.10068
785.41492
787.69795
789.95026
792.17233
794.36463
796.52764
798.66182
800.7676
802.84543
804.89573
806.91894
808.91547
810.88571
812.83008
814.74896
816.64273
818.51177
820.35646
822.17715
823.97421
825.74797
827.4988
829.22701
830.93296
832.61695
834.27931
835.92036
837.54041
839.13975
840.71869
842.27752
843.81653
845.336
846.83621
848.31744
849.77995
851.224
852.64987
854.0578
855.44804
856.82085
858.17647
859.51513
860.83708
862.14254
863.43174
864.70491
865.96226
867.20402
868.4304
869.64161
870.83786
872.01934
873.18627
874.33883
875.47723
876.60165
877.71228
878.80931
879.89293
880.9633
882.02061
883.06503
884.09673
885.11589
886.12267
887.11722
888.09973
889.07034
890.02921
890.97649
891.91234
892.83691
893.75034
894.65279
895.54438
896.42528
897.2956
898.1555
899.0051
899.84454
900.67395
901.49346
902.30319
903.10328
903.89384
904.675
905.44688
906.20959
906.96325
907.70798
908.44388
909.17108
909.88967
910.59978
911.30149
911.99493
912.68019
913.35737
914.02658
914.68791
915.34146
915.98733
916.6256
917.25638
917.87976
918.49581
919.10462
919.70623
920.30051
920.88624
921.45543
921.95121
325.49995
347.56145
368.79894
388.34824
406.09703
422.19991
436.85872
450.27014
462.61197
474.03887
484.68241
494.65293
504.04204
512.92464
521.35859
529.39527
537.07661
544.44444
551.53428
558.37468
564.98926
571.39791
577.61753
583.6626
589.54497
595.27426
600.86124
606.31496
611.64326
616.85308
621.95058
626.94127
631.83012
636.6216
641.31979
645.92838
650.45079
654.89012
659.24924
663.53082
667.7373
671.87098
675.93389
679.92758
683.85384
687.71452
691.51141
695.24624
698.92062
702.53609
706.09412
709.59607
713.04325
716.43691
719.77824
723.06836
726.30836
729.49929
732.64214
735.73787
738.7874
741.7916
744.75135
747.66747
750.54079
753.3721
756.16219
758.9118
761.62167
764.29252
766.92506
769.51995
772.07787
774.59946
777.08535
779.53617
781.9525
784.33494
786.68406
789.00042
791.28457
793.53704
795.75836
797.94903
800.10956
802.24044
804.34215
806.41515
808.45991
810.47688
812.4665
814.4292
816.3654
818.27553
820.15998
822.01917
823.85347
825.66329
827.44898
829.21093
830.94949
832.66502
834.35788
836.0284
837.67693
839.30379
840.90931
842.4938
844.05759
845.60097
847.12425
848.62774
850.11171
851.57646
853.02226
854.4494
855.85815
857.24877
858.62152
859.97667
861.31447
862.63516
863.939
865.22622
866.49706
867.75176
868.99054
870.21363
871.42125
872.61361
873.79094
874.95344
876.10133
877.2348
878.35406
879.4593
880.55071
881.6285
882.69285
883.74394
884.78195
885.80707
886.81948
887.81933
888.80682
889.7821
890.74534
891.6967
892.63635
893.56444
894.48114
895.38658
896.28093
897.16433
898.03693
898.89887
899.75029
900.59135
901.42216
902.24287
903.05362
903.85453
904.64573
905.42735
906.19952
906.96237
907.716
908.46055
909.19613
909.92286
910.64085
911.35022
912.05107
912.74353
913.42769
914.10366
914.77156
915.43147
916.0835
916.72776
917.36435
917.99335
918.61486
919.22899
919.83582
920.43544
921.02795
921.61343
922.19198
922.76367
923.32859
923.88683
924.43846
924.98357
925.52222
926.05439
926.57977
927.09627
927.59293
928.00969
345.44407
376.31064
402.00897
423.83678
442.76836
459.44029
474.29662
487.6697
499.81917
510.95213
521.23505
530.802
539.7608
548.19771
556.18034
563.76448
570.99605
577.91642
584.56142
590.96087
597.13948
603.11791
608.91355
614.54114
620.01295
625.3392
630.5298
635.59356
640.53828
645.37079
650.09716
654.72279
659.25252
663.69072
668.04132
672.3079
676.49373
680.6018
684.63485
688.59543
692.48588
696.30837
700.06484
703.75694
707.38629
710.95457
714.4634
717.9144
721.30907
724.64886
727.93513
731.1692
734.35229
737.48556
740.57014
743.60709
746.59743
749.54214
752.44215
755.29836
758.11163
760.8828
763.61265
766.30199
768.95157
771.56213
774.1344
776.66909
779.16687
781.62843
784.05441
786.44545
788.80218
791.12519
793.41507
795.67241
797.89776
800.09167
802.25467
804.3873
806.49006
808.56345
810.60796
812.62407
814.61224
816.57294
818.50661
820.41369
822.29461
824.14979
825.97964
827.78457
829.56498
831.32124
833.05375
834.76286
836.44896
838.1124
839.75353
841.3727
842.97024
844.54649
846.10177
847.63641
849.15071
850.64499
852.11955
853.57468
855.01069
856.42785
857.82644
859.20675
860.56905
861.91359
863.24065
864.55049
865.84334
867.11947
868.37912
869.62252
870.84992
872.06154
873.25762
874.43838
875.60403
876.7548
877.89089
879.01253
880.1199
881.21323
882.29269
883.3585
884.41084
885.4499
886.47588
887.48894
888.48928
889.47707
890.45248
891.41569
892.36687
893.30617
894.23378
895.14984
896.05452
896.94796
897.83034
898.70179
899.56246
900.41251
901.25207
902.0813
902.90031
903.70927
904.50829
905.29752
906.07709
906.84712
907.60774
908.35908
909.10127
909.83441
910.55864
911.27407
911.98082
912.679
913.36872
914.0501
914.72325
915.38827
916.04526
916.69434
917.33561
917.96916
918.5951
919.21353
919.82454
920.42822
921.02468
921.614
922.19628
922.7716
923.34006
923.90173
924.45671
925.00508
925.54693
926.08233
926.61136
927.13411
927.65066
928.16107
928.66543
929.1638
929.65623
930.14269
930.62268
931.09345
931.54137
931.90224
367.24825
402.2618
428.96084
450.92623
469.67482
486.01616
500.47048
513.40836
525.11063
535.79672
545.64024
554.77918
563.32327
571.35952
578.95586
586.16764
593.04025
599.61387
605.92321
611.99722
617.85987
623.53112
629.02778
634.36405
639.55175
644.60079
649.52059
654.31958
659.00521
663.58404
668.06187
672.44386
676.73465
680.9384
685.05886
689.09946
693.06331
696.95327
700.77195
704.52177
708.20497
711.82361
715.37955
718.87436
722.3096
725.68684
729.00765
732.27352
735.48592
738.6462
741.75568
744.81558
747.82708
750.7913
753.70929
756.58207
759.41061
762.19583
764.93863
767.63987
770.30036
772.92088
775.50222
778.0451
780.55026
783.01841
785.45022
787.84638
790.20754
792.53433
794.82737
797.08728
799.31464
801.51002
803.67399
805.8071
807.90987
809.98284
812.0265
814.04137
816.02792
817.98663
819.91797
821.82239
823.70033
825.55224
827.37853
829.17962
830.95593
832.70786
834.43579
836.1401
837.82119
839.47941
841.11513
842.7287
844.32047
845.89078
847.43997
848.96836
850.47627
851.96403
853.43194
854.88031
856.30943
857.71961
859.11111
860.48424
861.83926
863.17645
864.49608
865.7984
867.08369
868.35218
869.60413
870.83979
872.05939
873.26317
874.45136
875.62419
876.78189
877.92467
879.05276
880.16635
881.26567
882.35092
883.4223
884.48001
885.52424
886.55519
887.57305
888.578
889.57022
890.54989
891.5172
892.47231
893.4154
894.34663
895.26617
896.17418
897.07082
897.95626
898.83064
899.69412
900.54685
901.38897
902.22063
903.04198
903.85316
904.6543
905.44554
906.22702
906.99887
907.76121
908.51418
909.25791
909.99251
910.71811
911.43484
912.1428
912.84212
913.53291
914.21529
914.88936
915.55524
916.21304
916.86285
917.5048
918.13897
918.76548
919.38441
919.99588
920.59998
921.1968
921.78645
922.369
922.94455
923.5132
924.07503
924.63013
925.17859
925.72049
926.25591
926.78493
927.30765
927.82412
928.33445
928.8387
929.33694
929.82926
930.31573
930.79642
931.2714
931.74073
932.20446
932.66254
933.11442
933.55717
933.97648
934.30758
)
;

boundaryField
{
    exteriorWall
    {
        type            fixedValue;
        value           uniform 973;
    }
    inlet
    {
        type            fixedValue;
        value           uniform 300;
    }
    outlet
    {
        type            zeroGradient;
    }
    walls
    {
        type            fixedValue;
        value           nonuniform List<scalar> 0();
    }
    frontAndBack
    {
        type            empty;
    }
    frontAndBack_pos
    {
        type            wedge;
    }
    frontAndBack_neg
    {
        type            wedge;
    }
}


// ************************************************************************* //
