/*--------------------------------*- C++ -*----------------------------------*\
  =========                 |
  \\      /  F ield         | OpenFOAM: The Open Source CFD Toolbox
   \\    /   O peration     | Website:  https://openfoam.org
    \\  /    A nd           | Version:  10
     \\/     M anipulation  |
\*---------------------------------------------------------------------------*/
FoamFile
{
    format      ascii;
    class       volVectorField;
    location    "1200/FLUID";
    object      U;
}
// * * * * * * * * * * * * * * * * * * * * * * * * * * * * * * * * * * * * * //

dimensions      [0 1 -1 0 0 0 0];

internalField   nonuniform List<vector> 
1200
(
(5.0693656 -0.099855872 4.8424471e-18)
(5.2532172 -0.12909332 9.5869864e-18)
(5.4800001 -0.13069727 3.4764191e-18)
(5.7043365 -0.12590406 -2.0072906e-18)
(5.9245504 -0.11555397 -1.5237928e-18)
(6.1375698 -0.10240879 -9.5118783e-19)
(6.3398913 -0.088983314 -4.5987001e-19)
(6.5310843 -0.076250776 9.0873932e-20)
(6.7119525 -0.064600607 4.2022054e-19)
(6.8835655 -0.054186436 1.0434908e-18)
(7.0471296 -0.044991122 1.5874281e-18)
(7.2038474 -0.036908905 2.0751231e-18)
(7.3547984 -0.029803622 2.6714532e-18)
(7.5009051 -0.023532937 3.3914861e-18)
(7.6429851 -0.017921326 3.9881717e-18)
(7.7819007 -0.012858687 4.5112757e-18)
(7.9181082 -0.0083673717 5.1847294e-18)
(8.051892 -0.0044363344 5.8636306e-18)
(8.1834883 -0.001029835 6.4294687e-18)
(8.3130912 0.0018942558 7.1404531e-18)
(8.4408541 0.004381104 7.764032e-18)
(8.5668989 0.0064764179 8.5341865e-18)
(8.6913235 0.0082242579 9.4981866e-18)
(8.8142074 0.0096658521 1.0477885e-17)
(8.9356165 0.010839111 1.123746e-17)
(9.0556068 0.011778583 1.197389e-17)
(9.1742251 0.012514877 1.2743086e-17)
(9.2915112 0.013074686 1.3823541e-17)
(9.4074997 0.013481953 1.466611e-17)
(9.5222216 0.013758091 1.5609213e-17)
(9.6357046 0.013922005 1.6577393e-17)
(9.7479742 0.013990248 1.7517378e-17)
(9.8590538 0.013977227 1.8512323e-17)
(9.9689652 0.013895434 1.9455654e-17)
(10.077729 0.013755661 2.0484083e-17)
(10.185363 0.013567214 2.1483216e-17)
(10.291887 0.013338104 2.2552066e-17)
(10.397317 0.013075226 2.3698323e-17)
(10.501671 0.012784522 2.4960352e-17)
(10.604963 0.012471134 2.6115812e-17)
(10.707209 0.012139584 2.7333087e-17)
(10.808424 0.011793857 2.8719772e-17)
(10.908622 0.011438701 2.9775997e-17)
(11.007819 0.011080574 3.1016655e-17)
(11.106029 0.010724224 3.2418902e-17)
(11.203266 0.010370997 3.3867234e-17)
(11.299543 0.010020696 3.502977e-17)
(11.394873 0.0096727039 3.6315023e-17)
(11.489269 0.0093263958 3.7723054e-17)
(11.582742 0.0089812931 3.909162e-17)
(11.675305 0.0086371007 4.0327775e-17)
(11.766971 0.0082936917 4.1709635e-17)
(11.85775 0.0079510725 4.3059325e-17)
(11.947655 0.007609348 4.4496629e-17)
(12.036697 0.0072686916 4.5998284e-17)
(12.124887 0.006929329 4.7312694e-17)
(12.212237 0.0065915193 4.8934674e-17)
(12.298758 0.0062555979 5.0567334e-17)
(12.384461 0.0059215162 5.2066246e-17)
(12.469366 0.0055879602 5.3612726e-17)
(12.553491 0.0052533574 5.5237482e-17)
(12.636847 0.004917403 5.6658942e-17)
(12.719442 0.0045806611 5.8252384e-17)
(12.801284 0.004243917 5.9839727e-17)
(12.882385 0.0039079486 6.1335824e-17)
(12.962752 0.0035734659 6.2866336e-17)
(13.042396 0.0032410858 6.4545216e-17)
(13.121325 0.002911328 6.619453e-17)
(13.199549 0.0025846227 6.772926e-17)
(13.277075 0.0022613222 6.9307807e-17)
(13.353913 0.0019417135 7.0787247e-17)
(13.430072 0.0016260287 7.2362539e-17)
(13.50556 0.0013144549 7.4132875e-17)
(13.580385 0.0010071423 7.5579347e-17)
(13.654556 0.00070421052 7.7288198e-17)
(13.728081 0.00040575448 7.9084724e-17)
(13.800968 0.0001118484 8.0742533e-17)
(13.873225 -0.00017745044 8.2229914e-17)
(13.94486 -0.0004620989 8.3981223e-17)
(14.015881 -0.00074206558 8.5632311e-17)
(14.086295 -0.001017329 8.7181508e-17)
(14.15611 -0.0012878759 8.8771739e-17)
(14.225334 -0.0015537004 9.0495008e-17)
(14.293973 -0.0018148023 9.1961687e-17)
(14.362036 -0.002071187 9.3630743e-17)
(14.429529 -0.0023228641 9.5208635e-17)
(14.49646 -0.0025698474 9.6682107e-17)
(14.562835 -0.0028121542 9.8464743e-17)
(14.628661 -0.0030498046 1.0004527e-16)
(14.693945 -0.0032828219 1.0180827e-16)
(14.758695 -0.0035112316 1.0363876e-16)
(14.822916 -0.0037350615 1.0537435e-16)
(14.886614 -0.0039543416 1.0701519e-16)
(14.949798 -0.0041691036 1.088017e-16)
(15.012472 -0.004379381 1.1064974e-16)
(15.074643 -0.004585209 1.1233832e-16)
(15.136317 -0.0047866242 1.14039e-16)
(15.197501 -0.0049836645 1.1593809e-16)
(15.2582 -0.0051763693 1.1771594e-16)
(15.31842 -0.0053647791 1.1943738e-16)
(15.378167 -0.0055489354 1.2129225e-16)
(15.437446 -0.0057288811 1.2297309e-16)
(15.496264 -0.0059046598 1.2465461e-16)
(15.554626 -0.0060763161 1.2637843e-16)
(15.612537 -0.0062438956 1.2826178e-16)
(15.670002 -0.0064074445 1.299829e-16)
(15.727028 -0.0065670099 1.3153459e-16)
(15.783618 -0.0067226397 1.3321926e-16)
(15.839779 -0.0068743822 1.3496118e-16)
(15.895515 -0.0070222865 1.3657171e-16)
(15.950832 -0.0071664022 1.3838265e-16)
(16.005734 -0.0073067793 1.4025052e-16)
(16.060225 -0.0074434684 1.4206985e-16)
(16.114312 -0.0075765205 1.4391593e-16)
(16.167998 -0.0077059869 1.456535e-16)
(16.221288 -0.0078319191 1.4724528e-16)
(16.274187 -0.0079543692 1.4890909e-16)
(16.326699 -0.0080733892 1.5088459e-16)
(16.378828 -0.0081890314 1.5285655e-16)
(16.43058 -0.0083013484 1.5469777e-16)
(16.481957 -0.0084103927 1.5644594e-16)
(16.532964 -0.008516217 1.5811623e-16)
(16.583606 -0.0086188739 1.599029e-16)
(16.633887 -0.008718416 1.6170126e-16)
(16.683809 -0.0088148961 1.636678e-16)
(16.733379 -0.0089083666 1.6550424e-16)
(16.782598 -0.00899888 1.6716623e-16)
(16.831472 -0.0090864884 1.6906315e-16)
(16.880004 -0.0091712442 1.7084525e-16)
(16.928197 -0.009253199 1.7273551e-16)
(16.976056 -0.0093324046 1.7449632e-16)
(17.023583 -0.0094089124 1.7638741e-16)
(17.070783 -0.0094827734 1.7825293e-16)
(17.117659 -0.0095540384 1.7994496e-16)
(17.164214 -0.0096227579 1.8170793e-16)
(17.210452 -0.0096889818 1.8347516e-16)
(17.256375 -0.00975276 1.8518023e-16)
(17.301989 -0.0098141415 1.8687491e-16)
(17.347295 -0.0098731754 1.888393e-16)
(17.392296 -0.0099299099 1.9060882e-16)
(17.436997 -0.0099843931 1.9236053e-16)
(17.4814 -0.010036672 1.9426359e-16)
(17.525508 -0.010086794 1.9622948e-16)
(17.569323 -0.010134806 1.9805986e-16)
(17.61285 -0.010180753 1.9990176e-16)
(17.656091 -0.010224681 2.0170385e-16)
(17.699049 -0.010266634 2.0354679e-16)
(17.741727 -0.010306657 2.054378e-16)
(17.784127 -0.010344794 2.0736214e-16)
(17.826253 -0.010381087 2.0933436e-16)
(17.868106 -0.01041558 2.1120836e-16)
(17.90969 -0.010448314 2.1308649e-16)
(17.951008 -0.01047933 2.1481573e-16)
(17.992061 -0.01050867 2.1659303e-16)
(18.032854 -0.010536374 2.1837463e-16)
(18.073387 -0.010562481 2.2019687e-16)
(18.113664 -0.01058703 2.2209597e-16)
(18.153686 -0.010610059 2.2394113e-16)
(18.193458 -0.010631607 2.2587026e-16)
(18.23298 -0.01065171 2.27731e-16)
(18.272255 -0.010670405 2.2953078e-16)
(18.311287 -0.010687728 2.312842e-16)
(18.350076 -0.010703714 2.3308536e-16)
(18.388625 -0.010718398 2.3478249e-16)
(18.426937 -0.010731814 2.3656346e-16)
(18.465013 -0.010743995 2.3839204e-16)
(18.502857 -0.010754975 2.4018885e-16)
(18.540469 -0.010764786 2.41918e-16)
(18.577852 -0.01077346 2.4366596e-16)
(18.615009 -0.010781026 2.4533209e-16)
(18.651941 -0.010787518 2.4711048e-16)
(18.688651 -0.010792963 2.4887889e-16)
(18.72514 -0.010797392 2.5058716e-16)
(18.76141 -0.010800833 2.5240022e-16)
(18.797464 -0.010803314 2.5428204e-16)
(18.833303 -0.010804864 2.5613231e-16)
(18.86893 -0.010805509 2.5789395e-16)
(18.904345 -0.010805275 2.5968857e-16)
(18.939552 -0.010804187 2.6133058e-16)
(18.974552 -0.010802272 2.6304139e-16)
(19.009346 -0.01079955 2.6475671e-16)
(19.043937 -0.010796045 2.6651927e-16)
(19.078326 -0.010791775 2.6820802e-16)
(19.112516 -0.010786754 2.7006483e-16)
(19.146507 -0.010780987 2.7173418e-16)
(19.180301 -0.010774466 2.7337266e-16)
(19.213901 -0.010767157 2.7512927e-16)
(19.247307 -0.010758979 2.7682659e-16)
(19.28052 -0.010749767 2.7854974e-16)
(19.313543 -0.010739206 2.8025624e-16)
(19.346376 -0.010726701 2.8200978e-16)
(19.379017 -0.010711156 2.8370434e-16)
(19.411465 -0.0106906 2.8541778e-16)
(19.443716 -0.010661288 2.8705852e-16)
(19.475755 -0.010617261 2.8871154e-16)
(19.507582 -0.010544304 2.9040549e-16)
(19.539061 -0.010432767 2.9214096e-16)
(19.570508 -0.010197931 2.9383591e-16)
(19.599755 -0.0099836653 2.9547627e-16)
(19.632832 -0.0087906485 2.9723843e-16)
(5.1230162 -0.19306558 2.3806742e-19)
(5.3802308 -0.22344506 3.8416141e-19)
(5.6355508 -0.21357133 -3.4445693e-18)
(5.8745278 -0.19559684 -5.7832983e-18)
(6.1082073 -0.16874296 -1.4371734e-18)
(6.3322841 -0.13870095 1.9968712e-18)
(6.5441967 -0.10961796 6.7263828e-18)
(6.744691 -0.083019574 1.0851984e-17)
(6.9348919 -0.059583411 5.9421211e-18)
(7.115958 -0.039555097 6.2241185e-18)
(7.2891398 -0.022844985 6.3145906e-18)
(7.4556304 -0.0091700666 1.9230669e-18)
(7.6164703 0.0018442225 2.3054237e-18)
(7.7725655 0.010599854 2.6952257e-18)
(7.9248845 0.017433349 2.9969497e-18)
(8.0738338 0.022602341 3.2596237e-18)
(8.219755 0.02637318 3.4918086e-18)
(8.3629515 0.02901149 3.8227022e-18)
(8.5036651 0.030744309 4.0583238e-18)
(8.6420859 0.031755689 4.4811048e-18)
(8.7783637 0.032194885 4.8371283e-18)
(8.9126174 0.032182602 5.1357936e-18)
(9.0449427 0.031815828 -2.2562748e-19)
(9.1754186 0.031171702 2.3445925e-19)
(9.3041124 0.030311197 6.2333218e-18)
(9.4310828 0.029285911 6.4453624e-18)
(9.5563805 0.028138896 6.7915816e-18)
(9.6800506 0.026902958 7.247978e-18)
(9.8021352 0.02560381 7.6392531e-18)
(9.9226732 0.024262092 8.0733859e-18)
(10.041701 0.022894535 8.3966749e-18)
(10.159252 0.021514753 8.7507347e-18)
(10.275358 0.020133841 8.9963133e-18)
(10.390052 0.018760821 9.3518145e-18)
(10.503361 0.01740301 9.654006e-18)
(10.615315 0.016066302 1.0032425e-17)
(10.72594 0.014755408 1.034072e-17)
(10.835263 0.013474062 1.0670023e-17)
(10.943308 0.012225188 1.1016705e-17)
(11.050101 0.011011072 1.1387912e-17)
(11.155663 0.009833476 1.1768039e-17)
(11.260019 0.0086939338 1.211877e-17)
(11.363194 0.0075922613 1.2504713e-17)
(11.465244 0.0065244927 1.2892694e-17)
(11.566188 0.0054878592 1.3201654e-17)
(11.666041 0.0044823474 1.3612008e-17)
(11.764818 0.0035087885 1.3958338e-17)
(11.862537 0.0025679473 1.4324206e-17)
(11.959214 0.0016603479 1.4700333e-17)
(12.054864 0.00078624121 1.5046666e-17)
(12.149505 -5.4388106e-05 1.5443186e-17)
(12.24315 -0.00086178678 1.5718983e-17)
(12.335815 -0.0016363913 1.6153973e-17)
(12.427515 -0.0023787877 1.649002e-17)
(12.518262 -0.0030896746 1.6879893e-17)
(12.60807 -0.0037698294 2.7892833e-17)
(12.696954 -0.0044200747 2.8726378e-17)
(12.784925 -0.0050412355 1.8729969e-17)
(12.871996 -0.0056341341 1.8842685e-17)
(12.958174 -0.0061996672 1.9353498e-17)
(13.043467 -0.0067389814 1.9722647e-17)
(13.127887 -0.0072533371 2.0025005e-17)
(13.211446 -0.0077438347 2.0347929e-17)
(13.294158 -0.0082114994 2.0660768e-17)
(13.376032 -0.0086573117 2.1122319e-17)
(13.457081 -0.0090822106 2.1606471e-17)
(13.537315 -0.0094870987 2.2131949e-17)
(13.616747 -0.0098728475 2.2686919e-17)
(13.695386 -0.010240299 2.3242008e-17)
(13.773243 -0.01059027 2.3728137e-17)
(13.850328 -0.010923549 2.4241418e-17)
(13.926653 -0.011240901 2.4701137e-17)
(14.002226 -0.011543066 2.5155318e-17)
(14.077058 -0.01183076 2.5613312e-17)
(14.151158 -0.012104674 2.6091432e-17)
(14.224537 -0.012365475 2.6608259e-17)
(14.297203 -0.012613807 2.7038034e-17)
(14.369166 -0.01285029 2.7462367e-17)
(14.440435 -0.013075522 2.7927735e-17)
(14.511019 -0.013290074 2.8376012e-17)
(14.580926 -0.013494498 4.1817658e-17)
(14.650165 -0.013689323 4.2146125e-17)
(14.718745 -0.013875054 2.9521579e-17)
(14.786674 -0.014052176 2.9957575e-17)
(14.853961 -0.014221153 3.0506014e-17)
(14.920612 -0.014382427 3.1175832e-17)
(14.986637 -0.014536422 3.182833e-17)
(15.052043 -0.01468354 3.2456645e-17)
(15.116837 -0.014824167 3.2996383e-17)
(15.181028 -0.014958667 3.3542094e-17)
(15.244622 -0.015087389 3.4054695e-17)
(15.307628 -0.015210664 3.4596276e-17)
(15.370051 -0.015328806 3.5201176e-17)
(15.4319 -0.015442113 3.5701908e-17)
(15.49318 -0.015550869 3.6220128e-17)
(15.5539 -0.015655342 3.6742064e-17)
(15.614066 -0.015755784 3.7242564e-17)
(15.673683 -0.015852438 3.7746815e-17)
(15.73276 -0.015945528 3.8298171e-17)
(15.791301 -0.016035271 3.8757425e-17)
(15.849314 -0.016121868 3.923873e-17)
(15.906805 -0.016205511 3.9721547e-17)
(15.96378 -0.016286379 4.0174036e-17)
(16.020244 -0.016364642 4.0698535e-17)
(16.076203 -0.016440459 4.1199507e-17)
(16.131665 -0.01651398 4.1733729e-17)
(16.186633 -0.016585346 4.2258056e-17)
(16.241114 -0.016654689 4.2801957e-17)
(16.295113 -0.016722133 4.3356338e-17)
(16.348636 -0.016787794 4.3866918e-17)
(16.401688 -0.016851781 4.437673e-17)
(16.454275 -0.016914195 4.4903837e-17)
(16.5064 -0.01697513 4.5416629e-17)
(16.558071 -0.017034676 4.5948945e-17)
(16.609291 -0.017092915 4.6561529e-17)
(16.660066 -0.017149923 4.7191201e-17)
(16.7104 -0.017205772 4.7763749e-17)
(16.760298 -0.017260528 4.8420808e-17)
(16.809765 -0.017314253 4.9036511e-17)
(16.858806 -0.017367003 4.9662535e-17)
(16.907425 -0.01741883 5.0258533e-17)
(16.955627 -0.017469784 5.0829061e-17)
(17.003416 -0.017519909 5.141221e-17)
(17.050797 -0.017569246 5.2012426e-17)
(17.097773 -0.017617833 5.2558208e-17)
(17.144349 -0.017665704 5.3103249e-17)
(17.19053 -0.01771289 5.3643094e-17)
(17.236319 -0.017759421 5.4197811e-17)
(17.281721 -0.017805323 5.4774051e-17)
(17.326739 -0.017850619 5.5367317e-17)
(17.371377 -0.017895331 5.5995357e-17)
(17.41564 -0.017939477 5.6562594e-17)
(17.459531 -0.017983076 5.7151285e-17)
(17.503053 -0.018026142 5.7761388e-17)
(17.546212 -0.018068689 5.8359619e-17)
(17.58901 -0.018110729 5.8968154e-17)
(17.63145 -0.018152272 5.9553786e-17)
(17.673538 -0.018193328 6.0171844e-17)
(17.715275 -0.018233904 6.0782494e-17)
(17.756666 -0.018274007 6.1412248e-17)
(17.797714 -0.018313642 6.2016953e-17)
(17.838422 -0.018352815 6.2625324e-17)
(17.878794 -0.018391528 6.3224143e-17)
(17.918833 -0.018429784 6.3837646e-17)
(17.958542 -0.018467585 6.4446013e-17)
(17.997924 -0.018504932 6.5058051e-17)
(18.036984 -0.018541826 6.5691326e-17)
(18.075722 -0.018578267 6.6317269e-17)
(18.114144 -0.018614254 6.6953444e-17)
(18.152252 -0.018649787 6.7560391e-17)
(18.190048 -0.018684863 6.8166644e-17)
(18.227537 -0.018719481 6.8802846e-17)
(18.26472 -0.01875364 6.9462377e-17)
(18.301601 -0.018787335 7.006653e-17)
(18.338182 -0.018820566 7.0700587e-17)
(18.374467 -0.018853328 7.1314303e-17)
(18.410458 -0.018885619 7.1984043e-17)
(18.446158 -0.018917436 7.2629074e-17)
(18.48157 -0.018948775 7.3288647e-17)
(18.516695 -0.018979633 7.3938801e-17)
(18.551538 -0.019010006 7.4592609e-17)
(18.586101 -0.019039892 7.5256587e-17)
(18.620385 -0.019069285 7.5909005e-17)
(18.654395 -0.019098184 7.6569422e-17)
(18.688131 -0.019126584 7.7263851e-17)
(18.721598 -0.019154482 7.7935882e-17)
(18.754797 -0.019181874 7.8602893e-17)
(18.78773 -0.019208759 7.925624e-17)
(18.820401 -0.019235131 7.9895958e-17)
(18.852811 -0.019260989 8.0548015e-17)
(18.884963 -0.019286329 8.1199432e-17)
(18.916859 -0.019311149 8.1867483e-17)
(18.948502 -0.019335446 8.250037e-17)
(18.979894 -0.019359217 8.3162839e-17)
(19.011036 -0.01938246 8.3811751e-17)
(19.041932 -0.019405174 8.4451443e-17)
(19.072584 -0.019427355 8.5107756e-17)
(19.102993 -0.019449001 8.5772065e-17)
(19.133162 -0.019470111 8.6431463e-17)
(19.163093 -0.019490682 8.7073082e-17)
(19.192788 -0.01951071 8.7714128e-17)
(19.222249 -0.019530191 8.8380347e-17)
(19.251478 -0.019549118 8.9045974e-17)
(19.280478 -0.019567479 8.9672454e-17)
(19.30925 -0.019585253 9.0306965e-17)
(19.337796 -0.019602402 9.0979453e-17)
(19.366118 -0.019618858 9.1625703e-17)
(19.394219 -0.0196345 9.2275687e-17)
(19.422099 -0.019649104 9.2920862e-17)
(19.449761 -0.019662261 9.3535628e-17)
(19.477205 -0.019673228 9.4205379e-17)
(19.504434 -0.019680627 9.48746e-17)
(19.531448 -0.019681974 9.5551834e-17)
(19.558245 -0.019672403 9.6173218e-17)
(19.584821 -0.019643946 9.6789981e-17)
(19.611182 -0.019575506 9.7440554e-17)
(19.637245 -0.019451922 9.8065445e-17)
(19.663237 -0.019110591 9.8674185e-17)
(19.687615 -0.018800133 9.9333089e-17)
(19.714428 -0.016112716 1.0000792e-16)
(5.2347904 -0.31074562 3.4408276e-20)
(5.6218931 -0.29779988 -6.4844675e-20)
(5.9082691 -0.26368288 2.3685705e-20)
(6.1634303 -0.23308372 -5.6939574e-20)
(6.413424 -0.19646177 4.5846824e-20)
(6.6496487 -0.16031301 8.0786586e-20)
(6.8715152 -0.12795309 6.9679218e-20)
(7.0813972 -0.099901317 8.1725625e-20)
(7.280821 -0.076223732 2.4036957e-19)
(7.4711693 -0.05671922 2.8233171e-19)
(7.6538597 -0.040963157 3.4783975e-19)
(7.8301537 -0.028436337 4.3543807e-19)
(8.0010834 -0.018606497 5.3619678e-19)
(8.1674462 -0.010968983 6.751047e-19)
(8.3295707 -0.0051018134 7.4850414e-19)
(8.4879421 -0.00067791798 8.6328907e-19)
(8.6430164 0.002588802 1.0010385e-18)
(8.7950912 0.0049295586 1.1321587e-18)
(8.9443623 0.0065405748 1.2695238e-18)
(9.0909817 0.0075841318 1.3752498e-18)
(9.2350729 0.0081885407 1.4805288e-18)
(9.376737 0.0084538333 1.626144e-18)
(9.5160586 0.0084579959 1.7493538e-18)
(9.6531105 0.0082629157 1.8548154e-18)
(9.7879628 0.0079180167 2.0202706e-18)
(9.9206816 0.0074558323 2.1807171e-18)
(10.051319 0.0068993762 2.3340173e-18)
(10.17992 0.0062702875 2.4467832e-18)
(10.30653 0.0055867575 2.6009538e-18)
(10.431192 0.0048634016 2.7652574e-18)
(10.553947 0.0041119724 2.8948384e-18)
(10.674836 0.0033419356 3.0726751e-18)
(10.793894 0.0025609151 3.2737545e-18)
(10.911159 0.0017750543 3.4371907e-18)
(11.026665 0.00098930234 3.6153198e-18)
(11.140444 0.00020764104 3.8037025e-18)
(11.252528 -0.00056673372 3.9374202e-18)
(11.362948 -0.0013312624 4.0924912e-18)
(11.471734 -0.0020838955 4.2156707e-18)
(11.578913 -0.0028229743 4.4188979e-18)
(11.684513 -0.0035471244 4.5427956e-18)
(11.788561 -0.0042550891 4.7236945e-18)
(11.891079 -0.0049456217 4.9001494e-18)
(11.992055 -0.0056189085 5.0953804e-18)
(12.091516 -0.0062773897 5.233649e-18)
(12.189488 -0.0069218871 -1.4985515e-18)
(12.285999 -0.0075522793 -7.6064305e-19)
(12.381072 -0.0081681931 6.9119244e-18)
(12.474733 -0.0087692103 7.0404974e-18)
(12.567004 -0.0093549667 6.9321911e-18)
(12.657909 -0.0099252083 6.7387007e-18)
(12.74747 -0.010479807 6.6467524e-18)
(12.835709 -0.01101875 6.6386858e-18)
(12.922648 -0.011542127 6.7692493e-18)
(13.008306 -0.012050107 6.9884027e-18)
(13.092706 -0.012542921 7.2779706e-18)
(13.175866 -0.01302084 7.5865943e-18)
(13.257807 -0.013484171 7.8666387e-18)
(13.338547 -0.013933147 8.1260575e-18)
(13.418106 -0.014367839 8.3905881e-18)
(13.496501 -0.014788432 8.6588637e-18)
(13.57375 -0.015195405 8.9008679e-18)
(13.649871 -0.015589367 9.1235122e-18)
(13.724882 -0.015970912 9.3050787e-18)
(13.798798 -0.016340589 9.5314074e-18)
(13.871637 -0.016698894 9.7616039e-18)
(13.943414 -0.017046272 9.9467831e-18)
(14.014146 -0.017383124 1.0130492e-17)
(14.083848 -0.017709812 1.0307319e-17)
(14.152535 -0.018026667 1.0504147e-17)
(14.220222 -0.018333994 1.0691849e-17)
(14.286924 -0.018632074 1.0900867e-17)
(14.352656 -0.018921171 1.1070589e-17)
(14.417431 -0.019201535 1.1245454e-17)
(14.481263 -0.019473398 1.142878e-17)
(14.544167 -0.019736983 1.1594317e-17)
(14.606154 -0.019992502 1.182718e-17)
(14.66724 -0.020240155 1.204897e-17)
(14.727435 -0.020480135 1.2303334e-17)
(14.786754 -0.020712626 1.2565447e-17)
(14.845209 -0.020937807 1.2808623e-17)
(14.902811 -0.021155846 1.3097529e-17)
(14.959574 -0.021366906 1.3306773e-17)
(15.015508 -0.021571146 1.355102e-17)
(15.070626 -0.021768715 1.378447e-17)
(15.124938 -0.021959761 1.4021885e-17)
(15.178457 -0.022144422 1.4241843e-17)
(15.231192 -0.022322836 1.4487196e-17)
(15.283156 -0.022495133 1.4780647e-17)
(15.334359 -0.02266144 1.504861e-17)
(15.38481 -0.022821879 1.526842e-17)
(15.434522 -0.022976569 1.5541642e-17)
(15.483503 -0.023125625 1.578545e-17)
(15.531764 -0.023269158 1.6005228e-17)
(15.579315 -0.023407277 1.6227549e-17)
(15.626165 -0.023540087 1.6471486e-17)
(15.672324 -0.02366769 1.6709957e-17)
(15.717801 -0.023790186 1.6924464e-17)
(15.762606 -0.023907671 1.7136216e-17)
(15.806747 -0.024020241 1.7369556e-17)
(15.850234 -0.024127987 1.7584171e-17)
(15.893075 -0.024231 1.7846596e-17)
(15.935279 -0.024329367 1.8109159e-17)
(15.976855 -0.024423176 1.8387695e-17)
(16.017811 -0.02451251 1.8623841e-17)
(16.058156 -0.024597453 1.8881066e-17)
(16.097896 -0.024678084 1.9180938e-17)
(16.137042 -0.024754485 1.94649e-17)
(16.175599 -0.024826734 1.9725111e-17)
(16.213577 -0.024894906 2.001436e-17)
(16.250983 -0.024959079 2.0317021e-17)
(16.287824 -0.025019326 2.0603808e-17)
(16.324108 -0.02507572 2.0890746e-17)
(16.359842 -0.025128334 2.1159087e-17)
(16.395033 -0.025177238 2.1451264e-17)
(16.429689 -0.025222504 2.1743601e-17)
(16.463817 -0.025264199 2.202806e-17)
(16.497423 -0.025302393 2.2283544e-17)
(16.530514 -0.025337151 2.2594568e-17)
(16.563098 -0.025368542 2.285809e-17)
(16.59518 -0.02539663 2.317731e-17)
(16.626767 -0.025421479 2.343316e-17)
(16.657866 -0.025443155 2.3747189e-17)
(16.688483 -0.025461719 2.4069331e-17)
(16.718624 -0.025477235 2.4375692e-17)
(16.748296 -0.025489763 2.4692813e-17)
(16.777504 -0.025499366 2.4980796e-17)
(16.806254 -0.025506102 2.5287484e-17)
(16.834553 -0.025510032 2.557842e-17)
(16.862406 -0.025511213 2.583252e-17)
(16.889819 -0.025509705 2.6136865e-17)
(16.916797 -0.025505564 2.6417605e-17)
(16.943347 -0.025498846 2.6714345e-17)
(16.969473 -0.025489609 2.7011279e-17)
(16.995182 -0.025477906 2.7337312e-17)
(17.020478 -0.025463794 2.7629178e-17)
(17.045367 -0.025447324 2.7950322e-17)
(17.069854 -0.025428551 2.8271554e-17)
(17.093944 -0.025407528 2.8569148e-17)
(17.117642 -0.025384305 2.8874775e-17)
(17.140954 -0.025358934 2.9164752e-17)
(17.163884 -0.025331467 2.9476032e-17)
(17.186437 -0.025301951 2.973995e-17)
(17.208618 -0.025270438 3.0059439e-17)
(17.230432 -0.025236975 3.0355356e-17)
(17.251883 -0.02520161 3.0640915e-17)
(17.272976 -0.02516439 3.0947745e-17)
(17.293716 -0.025125361 3.1241495e-17)
(17.314107 -0.025084571 3.1519606e-17)
(17.334154 -0.025042063 3.1826968e-17)
(17.35386 -0.024997883 3.2134549e-17)
(17.373231 -0.024952074 3.2473959e-17)
(17.39227 -0.024904679 3.2742226e-17)
(17.410982 -0.024855742 3.3066223e-17)
(17.429371 -0.024805304 3.3356012e-17)
(17.447441 -0.024753406 3.3627456e-17)
(17.465196 -0.024700089 3.3907054e-17)
(17.482641 -0.024645393 3.4202709e-17)
(17.499778 -0.024589357 3.448008e-17)
(17.516613 -0.024532021 3.4791968e-17)
(17.533148 -0.024473422 3.5085575e-17)
(17.549388 -0.024413598 3.5384697e-17)
(17.565337 -0.024352587 3.5686643e-17)
(17.580998 -0.024290423 3.5964989e-17)
(17.596374 -0.024227144 3.6248806e-17)
(17.61147 -0.024162784 3.6554019e-17)
(17.62629 -0.024097377 3.6872673e-17)
(17.640835 -0.024030959 3.7114819e-17)
(17.655111 -0.023963562 3.7436525e-17)
(17.669121 -0.02389522 3.7708178e-17)
(17.682867 -0.023825965 3.8009177e-17)
(17.696354 -0.023755828 3.8323613e-17)
(17.709584 -0.023684841 3.8601186e-17)
(17.722561 -0.023613035 3.8884284e-17)
(17.735288 -0.02354044 3.9194085e-17)
(17.747769 -0.023467086 3.9467036e-17)
(17.760005 -0.023393002 3.9726931e-17)
(17.772002 -0.023318217 4.0034745e-17)
(17.783761 -0.023242757 4.0350747e-17)
(17.795286 -0.023166651 4.0627211e-17)
(17.806579 -0.023089924 4.0927743e-17)
(17.817644 -0.023012599 4.1225861e-17)
(17.828483 -0.0229347 4.1532161e-17)
(17.8391 -0.022856241 4.1841352e-17)
(17.849497 -0.022777234 4.2142804e-17)
(17.859678 -0.022697674 4.2404698e-17)
(17.869644 -0.022617534 4.2701311e-17)
(17.879399 -0.022536743 4.3011419e-17)
(17.888945 -0.022455156 4.3281947e-17)
(17.898286 -0.022372481 4.3576591e-17)
(17.907423 -0.022288175 4.3852884e-17)
(17.916362 -0.022201212 4.4158621e-17)
(17.925104 -0.022109761 4.4459283e-17)
(17.933656 -0.022010208 4.4765518e-17)
(17.942023 -0.02189736 4.5056053e-17)
(17.950221 -0.021755304 4.5349471e-17)
(17.958257 -0.021588099 4.5651042e-17)
(17.966224 -0.021244024 4.5942622e-17)
(17.973942 -0.02116216 4.6234801e-17)
(17.980889 -0.01838074 4.6533869e-17)
(5.3533156 -0.37060167 4.571214e-19)
(5.8593634 -0.27513197 -8.6260738e-19)
(6.1330163 -0.21691139 -2.6157425e-18)
(6.3748741 -0.18043328 -1.1147642e-18)
(6.615859 -0.14433539 1.0782797e-18)
(6.8411727 -0.11232176 1.1896573e-18)
(7.0525407 -0.085237825 -7.923295e-19)
(7.2534653 -0.062739414 -2.6548647e-18)
(7.4454568 -0.044658269 -9.56797e-20)
(7.6296793 -0.030658919 -3.6068936e-19)
(7.807209 -0.020214898 -3.9992343e-19)
(7.978893 -0.012717987 2.0935079e-18)
(8.1453554 -0.0075619676 2.0915925e-18)
(8.3070359 -0.0041939722 -4.7512615e-19)
(8.4642356 -0.0021382381 -3.3710783e-19)
(8.617177 -0.0010164387 2.3789245e-18)
(8.7660003 -0.00056883642 -3.0313996e-19)
(8.9108423 -0.00062096037 -1.384696e-19)
(9.051821 -0.0010343208 2.6666718e-18)
(9.1890307 -0.0016981806 -2.0870355e-19)
(9.3225535 -0.0025297189 -1.2459462e-19)
(9.4524668 -0.0034685816 2.8775695e-18)
(9.5788466 -0.0044708294 3.0935272e-18)
(9.7017686 -0.0055035267 3.1872098e-18)
(9.8213054 -0.0065410436 3.1446044e-18)
(9.9375295 -0.0075694662 3.0628214e-18)
(10.050521 -0.008583715 3.0097074e-18)
(10.160362 -0.0095767879 3.0485608e-18)
(10.267131 -0.010542198 3.0883478e-18)
(10.370908 -0.011475009 3.0745483e-18)
(10.471769 -0.012371646 3.079849e-18)
(10.569791 -0.013229647 3.1193598e-18)
(10.665049 -0.014047452 3.1325172e-18)
(10.757616 -0.014824204 3.2574974e-18)
(10.847564 -0.015559588 3.3651946e-18)
(10.934963 -0.016253708 3.3913957e-18)
(11.01988 -0.016906985 3.4311726e-18)
(11.102383 -0.017520083 3.4753189e-18)
(11.182536 -0.018093841 3.5360425e-18)
(11.260401 -0.018629224 3.6794543e-18)
(11.33604 -0.01912725 3.8159348e-18)
(11.409513 -0.019589114 3.8784207e-18)
(11.480875 -0.020014785 3.9300155e-18)
(11.550182 -0.020403627 4.0255949e-18)
(11.61749 -0.020756978 4.0960546e-18)
(11.682851 -0.021077672 9.7983877e-18)
(11.746316 -0.02136842 9.4437279e-18)
(11.807934 -0.021631492 3.7423409e-18)
(11.867754 -0.021868764 4.0404615e-18)
(11.92582 -0.022081807 4.1641503e-18)
(11.982179 -0.022271985 4.3186348e-18)
(12.036873 -0.022440516 4.5486885e-18)
(12.089945 -0.022588521 4.7720259e-18)
(12.141436 -0.022717048 4.89404e-18)
(12.191385 -0.022827092 4.9919779e-18)
(12.239833 -0.022919605 5.1493234e-18)
(12.286815 -0.022995502 5.2602001e-18)
(12.33237 -0.023055682 5.2837494e-18)
(12.376532 -0.023101042 5.3483632e-18)
(12.419337 -0.023132436 5.4724963e-18)
(12.460817 -0.023150629 5.5847544e-18)
(12.501006 -0.023156368 5.7096547e-18)
(12.539935 -0.023150383 5.8206235e-18)
(12.577636 -0.023133371 5.9524511e-18)
(12.614139 -0.023105992 6.0887921e-18)
(12.649473 -0.023068877 6.2378698e-18)
(12.683666 -0.023022626 6.3853459e-18)
(12.716747 -0.022967817 6.5127177e-18)
(12.748742 -0.022904997 6.6178718e-18)
(12.779678 -0.022834694 6.7151618e-18)
(12.80958 -0.022757408 6.8458026e-18)
(12.838474 -0.022673619 7.0780163e-18)
(12.866383 -0.022583785 7.2943481e-18)
(12.893331 -0.022488341 7.3582211e-18)
(12.919341 -0.022387701 7.476226e-18)
(12.944436 -0.022282261 7.6754979e-18)
(12.968638 -0.022172397 7.9148039e-18)
(12.991968 -0.022058463 8.0217991e-18)
(13.014446 -0.021940798 8.1291769e-18)
(13.036093 -0.021819723 8.3660946e-18)
(13.05693 -0.021695541 8.7017414e-18)
(13.076974 -0.021568538 8.8879761e-18)
(13.096245 -0.021438988 8.9556065e-18)
(13.114762 -0.021307145 9.0444536e-18)
(13.132542 -0.021173252 9.1294396e-18)
(13.149603 -0.021037537 9.2168435e-18)
(13.165961 -0.020900215 9.3129769e-18)
(13.181633 -0.020761488 9.4178714e-18)
(13.196637 -0.020621547 9.5357737e-18)
(13.210986 -0.020480571 9.6519623e-18)
(13.224698 -0.020338728 9.7643149e-18)
(13.237786 -0.020196174 9.8495385e-18)
(13.250267 -0.020053058 9.9424791e-18)
(13.262153 -0.019909518 1.0030435e-17)
(13.27346 -0.019765682 1.015269e-17)
(13.2842 -0.019621671 1.0250873e-17)
(13.294388 -0.019477599 1.0485742e-17)
(13.304037 -0.019333569 1.0729854e-17)
(13.313158 -0.01918968 1.0845437e-17)
(13.321766 -0.019046021 1.1105815e-17)
(13.329871 -0.018902677 1.1351976e-17)
(13.337487 -0.018759727 1.1573127e-17)
(13.344624 -0.018617242 1.1797094e-17)
(13.351294 -0.018475288 1.2000215e-17)
(13.357508 -0.018333928 1.2200717e-17)
(13.363277 -0.018193218 1.2394269e-17)
(13.368612 -0.01805321 1.260245e-17)
(13.373523 -0.017913951 1.2809088e-17)
(13.37802 -0.017775484 1.2994666e-17)
(13.382113 -0.01763785 1.3172113e-17)
(13.385812 -0.017501084 1.3309868e-17)
(13.389126 -0.017365218 1.3480687e-17)
(13.392065 -0.017230282 1.3793728e-17)
(13.394638 -0.017096302 1.3926454e-17)
(13.396853 -0.016963302 1.4087992e-17)
(13.39872 -0.016831302 1.4253281e-17)
(13.400246 -0.016700321 1.4399306e-17)
(13.401441 -0.016570374 1.4552336e-17)
(13.402311 -0.016441475 1.4722297e-17)
(13.402866 -0.016313637 1.4866304e-17)
(13.403113 -0.016186869 1.5022845e-17)
(13.403059 -0.016061178 1.5185345e-17)
(13.402712 -0.015936573 1.5318424e-17)
(13.402079 -0.015813056 1.5477347e-17)
(13.401167 -0.015690633 1.5636704e-17)
(13.399983 -0.015569305 1.5762044e-17)
(13.398535 -0.015449073 1.5919987e-17)
(13.396828 -0.015329938 1.6028199e-17)
(13.394869 -0.015211897 1.6125521e-17)
(13.392665 -0.015094949 1.6237614e-17)
(13.390221 -0.01497909 1.6365658e-17)
(13.387544 -0.014864318 1.6526538e-17)
(13.38464 -0.014750627 1.6670993e-17)
(13.381515 -0.014638011 1.6809068e-17)
(13.378174 -0.014526466 1.694974e-17)
(13.374622 -0.014415985 1.7105422e-17)
(13.370866 -0.01430656 1.7254718e-17)
(13.36691 -0.014198184 1.75763e-17)
(13.36276 -0.014090849 1.7859108e-17)
(13.358422 -0.013984548 1.8102966e-17)
(13.353899 -0.013879271 1.8192963e-17)
(13.349196 -0.013775009 1.8296796e-17)
(13.34432 -0.013671754 1.8401989e-17)
(13.339273 -0.013569496 1.8498277e-17)
(13.334062 -0.013468225 1.8629037e-17)
(13.328689 -0.013367932 1.8749791e-17)
(13.323161 -0.013268607 1.9007169e-17)
(13.31748 -0.013170239 1.9252574e-17)
(13.311651 -0.013072819 1.929863e-17)
(13.305679 -0.012976337 1.9388456e-17)
(13.299567 -0.012880781 1.9455393e-17)
(13.293319 -0.012786143 1.9569743e-17)
(13.286939 -0.01269241 1.9676229e-17)
(13.28043 -0.012599574 1.9793334e-17)
(13.273798 -0.012507624 2.0064827e-17)