/*--------------------------------*- C++ -*----------------------------------*\
  =========                 |
  \\      /  F ield         | OpenFOAM: The Open Source CFD Toolbox
   \\    /   O peration     | Website:  https://openfoam.org
    \\  /    A nd           | Version:  10
     \\/     M anipulation  |
\*---------------------------------------------------------------------------*/
FoamFile
{
    format      ascii;
    class       volScalarField;
    location    "4900/FLUID";
    object      alphaEffFluid;
}
// * * * * * * * * * * * * * * * * * * * * * * * * * * * * * * * * * * * * * //

dimensions      [1 -1 -1 0 0 0 0];

internalField   nonuniform List<scalar> 
200
(
0.0022968861
0.0023732018
0.0023916401
0.0024046213
0.0024230428
0.002441594
0.0024596683
0.0024777555
0.0024958617
0.0025139316
0.0025319569
0.0025499318
0.002567847
0.0025856935
0.0026034634
0.0026211492
0.0026387437
0.0026562405
0.0026736331
0.0026909157
0.0027080828
0.0027251294
0.0027420508
0.0027588424
0.0027755004
0.0027920209
0.0028084007
0.0028246365
0.0028407256
0.0028566654
0.0028724536
0.0028880882
0.0029035673
0.0029188894
0.002934053
0.0029490571
0.0029639005
0.0029785826
0.0029931027
0.0030074604
0.0030216553
0.0030356873
0.0030495563
0.0030632625
0.0030768062
0.0030901876
0.0031034073
0.0031164657
0.0031293636
0.0031421017
0.0031546808
0.0031671018
0.0031793658
0.0031914737
0.0032034267
0.0032152259
0.0032268726
0.003238368
0.0032497134
0.0032609102
0.0032719598
0.0032828636
0.003293623
0.0033042396
0.0033147148
0.0033250502
0.0033352473
0.0033453077
0.0033552328
0.0033650244
0.003374684
0.0033842133
0.0033936137
0.0034028869
0.0034120346
0.0034210583
0.0034299596
0.0034387402
0.0034474017
0.0034559455
0.0034643734
0.0034726869
0.0034808876
0.003488977
0.0034969567
0.0035048283
0.0035125931
0.0035202529
0.003527809
0.003535263
0.0035426163
0.0035498704
0.0035570268
0.0035640868
0.0035710519
0.0035779235
0.0035847029
0.0035913916
0.0035979908
0.0036045019
0.0036109262
0.0036172651
0.0036235197
0.0036296914
0.0036357813
0.0036417908
0.003647721
0.0036535732
0.0036593484
0.0036650479
0.0036706728
0.0036762241
0.0036817032
0.0036871109
0.0036924484
0.0036977168
0.003702917
0.0037080501
0.0037131172
0.0037181191
0.003723057
0.0037279316
0.0037327441
0.0037374952
0.003742186
0.0037468173
0.00375139
0.0037559049
0.003760363
0.0037647651
0.0037691119
0.0037734044
0.0037776432
0.0037818293
0.0037859633
0.003790046
0.0037940782
0.0037980605
0.0038019938
0.0038058787
0.003809716
0.0038135062
0.0038172502
0.0038209484
0.0038246017
0.0038282106
0.0038317758
0.0038352978
0.0038387773
0.0038422149
0.0038456112
0.0038489668
0.0038522821
0.0038555579
0.0038587945
0.0038619926
0.0038651528
0.0038682754
0.003871361
0.0038744102
0.0038774235
0.0038804012
0.0038833439
0.0038862521
0.0038891263
0.0038919668
0.0038947741
0.0038975488
0.0039002911
0.0039030016
0.0039056806
0.0039083287
0.0039109461
0.0039135332
0.0039160906
0.0039186185
0.0039211173
0.0039235875
0.0039260294
0.0039284433
0.0039308296
0.0039331887
0.0039355209
0.0039378265
0.003940106
0.0039423595
0.0039445875
0.0039467902
0.0039489681
0.0039511213
0.0039532502
0.0039553551
0.0039574362
0.0039594942
0.0039615278
0.0039635417
0.0039655178
0.0039674977
0.0039692448
0.0039710643
)
;

boundaryField
{
    exteriorWall
    {
        type            calculated;
        value           nonuniform List<scalar> 
200
(
2.6776175e-05
2.7227891e-05
2.7671834e-05
2.8108313e-05
2.8538183e-05
2.8961493e-05
2.9378299e-05
2.9788723e-05
3.0192882e-05
3.0590888e-05
3.098285e-05
3.1368879e-05
3.1749084e-05
3.212357e-05
3.2492443e-05
3.2855806e-05
3.3213762e-05
3.356641e-05
3.3913848e-05
3.4256172e-05
3.4593477e-05
3.4925856e-05
3.5253398e-05
3.5576193e-05
3.5894327e-05
3.6207886e-05
3.6516951e-05
3.6821605e-05
3.7121927e-05
3.7417995e-05
3.7709885e-05
3.7997671e-05
3.8281425e-05
3.8561219e-05
3.8837122e-05
3.9109202e-05
3.9377525e-05
3.9642157e-05
3.9903159e-05
4.0160596e-05
4.0414527e-05
4.0665011e-05
4.0912106e-05
4.1155869e-05
4.1396356e-05
4.163362e-05
4.1867716e-05
4.2098693e-05
4.2326604e-05
4.2551498e-05
4.2773424e-05
4.2992429e-05
4.320856e-05
4.3421862e-05
4.363238e-05
4.3840158e-05
4.4045239e-05
4.4247665e-05
4.4447476e-05
4.4644713e-05
4.4839415e-05
4.5031621e-05
4.522137e-05
4.5408697e-05
4.559364e-05
4.5776234e-05
4.5956515e-05
4.6134516e-05
4.6310271e-05
4.6483814e-05
4.6655176e-05
4.682439e-05
4.6991487e-05
4.7156496e-05
4.731945e-05
4.7480376e-05
4.7639305e-05
4.7796264e-05
4.7951281e-05
4.8104384e-05
4.82556e-05
4.8404955e-05
4.8552475e-05
4.8698186e-05
4.8842113e-05
4.8984281e-05
4.9124714e-05
4.9263435e-05
4.9400469e-05
4.9535838e-05
4.9669565e-05
4.9801672e-05
4.9932182e-05
5.0061115e-05
5.0188493e-05
5.0314336e-05
5.0438666e-05
5.0561503e-05
5.0682865e-05
5.0802774e-05
5.0921247e-05
5.1038305e-05
5.1153965e-05
5.1268247e-05
5.1381167e-05
5.1492744e-05
5.1602996e-05
5.1711939e-05
5.181959e-05
5.1925967e-05
5.2031085e-05
5.2134961e-05
5.2237611e-05
5.2339051e-05
5.2439295e-05
5.253836e-05
5.263626e-05
5.273301e-05
5.2828624e-05
5.2923118e-05
5.3016505e-05
5.3108799e-05
5.3200014e-05
5.3290164e-05
5.3379261e-05
5.3467319e-05
5.3554352e-05
5.3640371e-05
5.3725389e-05
5.380942e-05
5.3892474e-05
5.3974565e-05
5.4055704e-05
5.4135902e-05
5.4215173e-05
5.4293526e-05
5.4370973e-05
5.4447526e-05
5.4523194e-05
5.459799e-05
5.4671924e-05
5.4745006e-05
5.4817247e-05
5.4888656e-05
5.4959245e-05
5.5029022e-05
5.5097999e-05
5.5166183e-05
5.5233586e-05
5.5300217e-05
5.5366084e-05
5.5431198e-05
5.5495566e-05
5.5559198e-05
5.5622104e-05
5.5684291e-05
5.5745768e-05
5.5806544e-05
5.5866627e-05
5.5926026e-05
5.5984748e-05
5.6042802e-05
5.6100195e-05
5.6156935e-05
5.6213031e-05
5.6268489e-05
5.6323318e-05
5.6377525e-05
5.6431117e-05
5.6484101e-05
5.6536485e-05
5.6588275e-05
5.6639479e-05
5.6690104e-05
5.6740156e-05
5.6789643e-05
5.683857e-05
5.6886944e-05
5.6934773e-05
5.6982062e-05
5.7028817e-05
5.7075045e-05
5.7120752e-05
5.7165944e-05
5.7210628e-05
5.7254808e-05
5.7298491e-05
5.7341682e-05
5.7384388e-05
5.7426614e-05
5.7468365e-05
5.7509647e-05
5.7550466e-05
5.7590826e-05
5.7630731e-05
5.7670179e-05
5.7709135e-05
5.7747412e-05
5.778405e-05
5.7814268e-05
)
;
    }
    inlet
    {
        type            calculated;
        value           uniform 2.6259953e-05;
    }
    outlet
    {
        type            calculated;
        value           uniform 5.7814268e-05;
    }
    walls
    {
        type            calculated;
        value           nonuniform List<scalar> 
200
(
2.6776175e-05
2.7227891e-05
2.7671834e-05
2.8108313e-05
2.8538183e-05
2.8961493e-05
2.9378299e-05
2.9788723e-05
3.0192882e-05
3.0590888e-05
3.098285e-05
3.1368879e-05
3.1749084e-05
3.212357e-05
3.2492443e-05
3.2855806e-05
3.3213762e-05
3.356641e-05
3.3913848e-05
3.4256172e-05
3.4593477e-05
3.4925856e-05
3.5253398e-05
3.5576193e-05
3.5894327e-05
3.6207886e-05
3.6516951e-05
3.6821605e-05
3.7121927e-05
3.7417995e-05
3.7709885e-05
3.7997671e-05
3.8281425e-05
3.8561219e-05
3.8837122e-05
3.9109202e-05
3.9377525e-05
3.9642157e-05
3.9903159e-05
4.0160596e-05
4.0414527e-05
4.0665011e-05
4.0912106e-05
4.1155869e-05
4.1396356e-05
4.163362e-05
4.1867716e-05
4.2098693e-05
4.2326604e-05
4.2551498e-05
4.2773424e-05
4.2992429e-05
4.320856e-05
4.3421862e-05
4.363238e-05
4.3840158e-05
4.4045239e-05
4.4247665e-05
4.4447476e-05
4.4644713e-05
4.4839415e-05
4.5031621e-05
4.522137e-05
4.5408697e-05
4.559364e-05
4.5776234e-05
4.5956515e-05
4.6134516e-05
4.6310271e-05
4.6483814e-05
4.6655176e-05
4.682439e-05
4.6991487e-05
4.7156496e-05
4.731945e-05
4.7480376e-05
4.7639305e-05
4.7796264e-05
4.7951281e-05
4.8104384e-05
4.82556e-05
4.8404955e-05
4.8552475e-05
4.8698186e-05
4.8842113e-05
4.8984281e-05
4.9124714e-05
4.9263435e-05
4.9400469e-05
4.9535838e-05
4.9669565e-05
4.9801672e-05
4.9932182e-05
5.0061115e-05
5.0188493e-05
5.0314336e-05
5.0438666e-05
5.0561503e-05
5.0682865e-05
5.0802774e-05
5.0921247e-05
5.1038305e-05
5.1153965e-05
5.1268247e-05
5.1381167e-05
5.1492744e-05
5.1602996e-05
5.1711939e-05
5.181959e-05
5.1925967e-05
5.2031085e-05
5.2134961e-05
5.2237611e-05
5.2339051e-05
5.2439295e-05
5.253836e-05
5.263626e-05
5.273301e-05
5.2828624e-05
5.2923118e-05
5.3016505e-05
5.3108799e-05
5.3200014e-05
5.3290164e-05
5.3379261e-05
5.3467319e-05
5.3554352e-05
5.3640371e-05
5.3725389e-05
5.380942e-05
5.3892474e-05
5.3974565e-05
5.4055704e-05
5.4135902e-05
5.4215173e-05
5.4293526e-05
5.4370973e-05
5.4447526e-05
5.4523194e-05
5.459799e-05
5.4671924e-05
5.4745006e-05
5.4817247e-05
5.4888656e-05
5.4959245e-05
5.5029022e-05
5.5097999e-05
5.5166183e-05
5.5233586e-05
5.5300217e-05
5.5366084e-05
5.5431198e-05
5.5495566e-05
5.5559198e-05
5.5622104e-05
5.5684291e-05
5.5745768e-05
5.5806544e-05
5.5866627e-05
5.5926026e-05
5.5984748e-05
5.6042802e-05
5.6100195e-05
5.6156935e-05
5.6213031e-05
5.6268489e-05
5.6323318e-05
5.6377525e-05
5.6431117e-05
5.6484101e-05
5.6536485e-05
5.6588275e-05
5.6639479e-05
5.6690104e-05
5.6740156e-05
5.6789643e-05
5.683857e-05
5.6886944e-05
5.6934773e-05
5.6982062e-05
5.7028817e-05
5.7075045e-05
5.7120752e-05
5.7165944e-05
5.7210628e-05
5.7254808e-05
5.7298491e-05
5.7341682e-05
5.7384388e-05
5.7426614e-05
5.7468365e-05
5.7509647e-05
5.7550466e-05
5.7590826e-05
5.7630731e-05
5.7670179e-05
5.7709135e-05
5.7747412e-05
5.778405e-05
5.7814268e-05
)
;
    }
    frontAndBack
    {
        type            empty;
    }
}


// ************************************************************************* //
