/*--------------------------------*- C++ -*----------------------------------*\
  =========                 |
  \\      /  F ield         | OpenFOAM: The Open Source CFD Toolbox
   \\    /   O peration     | Website:  https://openfoam.org
    \\  /    A nd           | Version:  10
     \\/     M anipulation  |
\*---------------------------------------------------------------------------*/
FoamFile
{
    format      ascii;
    class       volScalarField;
    location    "4900/FLUID";
    object      alphaEffFluid;
}
// * * * * * * * * * * * * * * * * * * * * * * * * * * * * * * * * * * * * * //

dimensions      [1 -1 -1 0 0 0 0];

internalField   nonuniform List<scalar> 
200
(
0.0022962984
0.0023720169
0.0023901316
0.0024028012
0.0024208867
0.0024391018
0.0024568414
0.0024745941
0.0024923665
0.002510104
0.0025277988
0.0025454457
0.0025630357
0.0025805605
0.0025980124
0.0026153843
0.0026326694
0.0026498612
0.0026669538
0.0026839416
0.0027008192
0.002717582
0.0027342251
0.0027507446
0.0027671364
0.002783397
0.002799523
0.0028155114
0.0028313595
0.0028470647
0.0028626248
0.0028780377
0.0028933017
0.0029084151
0.0029233766
0.002938185
0.0029528392
0.0029673384
0.0029816819
0.0029958693
0.0030099001
0.0030237741
0.0030374913
0.0030510516
0.0030644553
0.0030777025
0.0030907936
0.0031037291
0.0031165096
0.0031291357
0.0031416082
0.0031539277
0.0031660953
0.0031781118
0.0031899783
0.0032016957
0.0032132653
0.0032246881
0.0032359654
0.0032470984
0.0032580884
0.0032689367
0.0032796447
0.0032902136
0.003300645
0.0033109402
0.0033211007
0.003331128
0.0033410234
0.0033507885
0.0033604248
0.0033699338
0.0033793169
0.0033885758
0.0033977119
0.0034067267
0.0034156218
0.0034243986
0.0034330588
0.0034416037
0.0034500349
0.003458354
0.0034665623
0.0034746615
0.0034826529
0.003490538
0.0034983184
0.0035059953
0.0035135704
0.0035210449
0.0035284204
0.0035356982
0.0035428796
0.0035499662
0.0035569591
0.0035638599
0.0035706697
0.0035773899
0.0035840219
0.0035905668
0.003597026
0.0036034007
0.0036096922
0.0036159016
0.0036220302
0.0036280791
0.0036340496
0.0036399427
0.0036457597
0.0036515017
0.0036571697
0.0036627648
0.0036682882
0.0036737408
0.0036791238
0.0036844381
0.0036896848
0.0036948649
0.0036999793
0.003705029
0.003710015
0.0037149382
0.0037197996
0.0037245999
0.0037293402
0.0037340214
0.0037386441
0.0037432095
0.0037477181
0.003752171
0.0037565689
0.0037609125
0.0037652027
0.0037694403
0.003773626
0.0037777606
0.0037818447
0.0037858792
0.0037898646
0.0037938018
0.0037976914
0.0038015341
0.0038053305
0.0038090813
0.0038127871
0.0038164487
0.0038200665
0.0038236412
0.0038271734
0.0038306637
0.0038341126
0.0038375208
0.0038408889
0.0038442172
0.0038475065
0.0038507572
0.0038539699
0.003857145
0.0038602831
0.0038633847
0.0038664503
0.0038694803
0.0038724752
0.0038754356
0.0038783618
0.0038812543
0.0038841136
0.0038869401
0.0038897342
0.0038924963
0.0038952269
0.0038979264
0.0039005952
0.0039032336
0.0039058421
0.0039084211
0.0039109709
0.0039134919
0.0039159845
0.003918449
0.0039208858
0.0039232953
0.0039256777
0.0039280335
0.0039303629
0.0039326663
0.0039349441
0.0039371964
0.0039394237
0.0039416263
0.0039438044
0.0039459584
0.0039480884
0.0039501952
0.0039522775
0.0039543398
0.0039563643
0.003958392
0.0039601849
0.0039620421
)
;

boundaryField
{
    exteriorWall
    {
        type            calculated;
        value           nonuniform List<scalar> 
200
(
2.6767028e-05
2.7210865e-05
2.7647151e-05
2.807618e-05
2.8498793e-05
2.8915039e-05
2.9324969e-05
2.9728704e-05
3.0126356e-05
3.0518032e-05
3.090384e-05
3.1283885e-05
3.1658272e-05
3.2027104e-05
3.2390483e-05
3.2748508e-05
3.3101278e-05
3.3448889e-05
3.3791435e-05
3.4129009e-05
3.4461703e-05
3.4789606e-05
3.5112804e-05
3.5431383e-05
3.5745428e-05
3.6055019e-05
3.6360237e-05
3.6661161e-05
3.6957868e-05
3.7250431e-05
3.7538925e-05
3.7823421e-05
3.8103989e-05
3.8380699e-05
3.8653616e-05
3.8922807e-05
3.9188336e-05
3.9450264e-05
3.9708654e-05
3.9963566e-05
4.0215057e-05
4.0463186e-05
4.0708008e-05
4.0949578e-05
4.1187949e-05
4.1423174e-05
4.1655305e-05
4.1884392e-05
4.2110482e-05
4.2333626e-05
4.2553869e-05
4.2771259e-05
4.2985839e-05
4.3197654e-05
4.3406747e-05
4.3613161e-05
4.3816937e-05
4.4018115e-05
4.4216736e-05
4.4412839e-05
4.4606461e-05
4.4797641e-05
4.4986414e-05
4.5172817e-05
4.5356885e-05
4.5538653e-05
4.5718155e-05
4.5895424e-05
4.6070492e-05
4.6243392e-05
4.6414155e-05
4.6582812e-05
4.6749393e-05
4.6913929e-05
4.7076447e-05
4.7236977e-05
4.7395547e-05
4.7552184e-05
4.7706916e-05
4.7859769e-05
4.801077e-05
4.8159944e-05
4.8307316e-05
4.8452911e-05
4.8596754e-05
4.8738868e-05
4.8879277e-05
4.9018005e-05
4.9155074e-05
4.9290506e-05
4.9424323e-05
4.9556548e-05
4.9687201e-05
4.9816303e-05
4.9943875e-05
5.0069937e-05
5.0194509e-05
5.0317612e-05
5.0439263e-05
5.0559482e-05
5.0678288e-05
5.0795699e-05
5.0911733e-05
5.1026408e-05
5.1139742e-05
5.1251752e-05
5.1362455e-05
5.1471868e-05
5.1580006e-05
5.1686887e-05
5.1792527e-05
5.1896941e-05
5.2000144e-05
5.2102153e-05
5.2202982e-05
5.2302645e-05
5.2401158e-05
5.2498536e-05
5.2594791e-05
5.2689939e-05
5.2783993e-05
5.2876966e-05
5.2968873e-05
5.3059725e-05
5.3149537e-05
5.3238321e-05
5.332609e-05
5.3412856e-05
5.3498632e-05
5.3583429e-05
5.366726e-05
5.3750136e-05
5.3832069e-05
5.3913071e-05
5.3993153e-05
5.4072325e-05
5.41506e-05
5.4227987e-05
5.4304498e-05
5.4380144e-05
5.4454933e-05
5.4528878e-05
5.4601987e-05
5.4674272e-05
5.4745741e-05
5.4816405e-05
5.4886273e-05
5.4955354e-05
5.5023659e-05
5.5091196e-05
5.5157974e-05
5.5224003e-05
5.528929e-05
5.5353846e-05
5.5417679e-05
5.5480796e-05
5.5543208e-05
5.5604921e-05
5.5665944e-05
5.5726286e-05
5.5785953e-05
5.5844955e-05
5.5903299e-05
5.5960992e-05
5.6018042e-05
5.6074457e-05
5.6130244e-05
5.6185411e-05
5.6239964e-05
5.6293911e-05
5.6347258e-05
5.6400013e-05
5.6452183e-05
5.6503774e-05
5.6554794e-05
5.6605247e-05
5.6655142e-05
5.6704485e-05
5.6753282e-05
5.6801539e-05
5.6849262e-05
5.6896459e-05
5.6943133e-05
5.6989293e-05
5.7034943e-05
5.708009e-05
5.7124738e-05
5.7168895e-05
5.7212564e-05
5.7255753e-05
5.7298466e-05
5.7340709e-05
5.7382487e-05
5.7423805e-05
5.7464667e-05
5.750507e-05
5.7544979e-05
5.7584201e-05
5.7621755e-05
5.7652742e-05
)
;
    }
    inlet
    {
        type            calculated;
        value           uniform 2.6259953e-05;
    }
    outlet
    {
        type            calculated;
        value           uniform 5.7652742e-05;
    }
    walls
    {
        type            calculated;
        value           nonuniform List<scalar> 
200
(
2.6767028e-05
2.7210865e-05
2.7647151e-05
2.807618e-05
2.8498793e-05
2.8915039e-05
2.9324969e-05
2.9728704e-05
3.0126356e-05
3.0518032e-05
3.090384e-05
3.1283885e-05
3.1658272e-05
3.2027104e-05
3.2390483e-05
3.2748508e-05
3.3101278e-05
3.3448889e-05
3.3791435e-05
3.4129009e-05
3.4461703e-05
3.4789606e-05
3.5112804e-05
3.5431383e-05
3.5745428e-05
3.6055019e-05
3.6360237e-05
3.6661161e-05
3.6957868e-05
3.7250431e-05
3.7538925e-05
3.7823421e-05
3.8103989e-05
3.8380699e-05
3.8653616e-05
3.8922807e-05
3.9188336e-05
3.9450264e-05
3.9708654e-05
3.9963566e-05
4.0215057e-05
4.0463186e-05
4.0708008e-05
4.0949578e-05
4.1187949e-05
4.1423174e-05
4.1655305e-05
4.1884392e-05
4.2110482e-05
4.2333626e-05
4.2553869e-05
4.2771259e-05
4.2985839e-05
4.3197654e-05
4.3406747e-05
4.3613161e-05
4.3816937e-05
4.4018115e-05
4.4216736e-05
4.4412839e-05
4.4606461e-05
4.4797641e-05
4.4986414e-05
4.5172817e-05
4.5356885e-05
4.5538653e-05
4.5718155e-05
4.5895424e-05
4.6070492e-05
4.6243392e-05
4.6414155e-05
4.6582812e-05
4.6749393e-05
4.6913929e-05
4.7076447e-05
4.7236977e-05
4.7395547e-05
4.7552184e-05
4.7706916e-05
4.7859769e-05
4.801077e-05
4.8159944e-05
4.8307316e-05
4.8452911e-05
4.8596754e-05
4.8738868e-05
4.8879277e-05
4.9018005e-05
4.9155074e-05
4.9290506e-05
4.9424323e-05
4.9556548e-05
4.9687201e-05
4.9816303e-05
4.9943875e-05
5.0069937e-05
5.0194509e-05
5.0317612e-05
5.0439263e-05
5.0559482e-05
5.0678288e-05
5.0795699e-05
5.0911733e-05
5.1026408e-05
5.1139742e-05
5.1251752e-05
5.1362455e-05
5.1471868e-05
5.1580006e-05
5.1686887e-05
5.1792527e-05
5.1896941e-05
5.2000144e-05
5.2102153e-05
5.2202982e-05
5.2302645e-05
5.2401158e-05
5.2498536e-05
5.2594791e-05
5.2689939e-05
5.2783993e-05
5.2876966e-05
5.2968873e-05
5.3059725e-05
5.3149537e-05
5.3238321e-05
5.332609e-05
5.3412856e-05
5.3498632e-05
5.3583429e-05
5.366726e-05
5.3750136e-05
5.3832069e-05
5.3913071e-05
5.3993153e-05
5.4072325e-05
5.41506e-05
5.4227987e-05
5.4304498e-05
5.4380144e-05
5.4454933e-05
5.4528878e-05
5.4601987e-05
5.4674272e-05
5.4745741e-05
5.4816405e-05
5.4886273e-05
5.4955354e-05
5.5023659e-05
5.5091196e-05
5.5157974e-05
5.5224003e-05
5.528929e-05
5.5353846e-05
5.5417679e-05
5.5480796e-05
5.5543208e-05
5.5604921e-05
5.5665944e-05
5.5726286e-05
5.5785953e-05
5.5844955e-05
5.5903299e-05
5.5960992e-05
5.6018042e-05
5.6074457e-05
5.6130244e-05
5.6185411e-05
5.6239964e-05
5.6293911e-05
5.6347258e-05
5.6400013e-05
5.6452183e-05
5.6503774e-05
5.6554794e-05
5.6605247e-05
5.6655142e-05
5.6704485e-05
5.6753282e-05
5.6801539e-05
5.6849262e-05
5.6896459e-05
5.6943133e-05
5.6989293e-05
5.7034943e-05
5.708009e-05
5.7124738e-05
5.7168895e-05
5.7212564e-05
5.7255753e-05
5.7298466e-05
5.7340709e-05
5.7382487e-05
5.7423805e-05
5.7464667e-05
5.750507e-05
5.7544979e-05
5.7584201e-05
5.7621755e-05
5.7652742e-05
)
;
    }
    frontAndBack
    {
        type            empty;
    }
}


// ************************************************************************* //
