/*--------------------------------*- C++ -*----------------------------------*\
  =========                 |
  \\      /  F ield         | OpenFOAM: The Open Source CFD Toolbox
   \\    /   O peration     | Website:  https://openfoam.org
    \\  /    A nd           | Version:  10
     \\/     M anipulation  |
\*---------------------------------------------------------------------------*/
FoamFile
{
    format      ascii;
    class       volScalarField;
    location    "4900/FLUID";
    object      CpEff;
}
// * * * * * * * * * * * * * * * * * * * * * * * * * * * * * * * * * * * * * //

dimensions      [0 2 -2 -1 0 0 0];

internalField   nonuniform List<scalar> 
200
(
850.35212
850.35313
850.35419
850.35527
850.35638
850.3575
850.35862
850.35976
850.36089
850.36202
850.36314
850.36426
850.36536
850.36645
850.36752
850.36857
850.3696
850.37061
850.3716
850.37256
850.3735
850.37442
850.37531
850.37617
850.37701
850.37783
850.37861
850.37937
850.3801
850.38081
850.38149
850.38215
850.38278
850.38338
850.38396
850.38452
850.38505
850.38556
850.38604
850.3865
850.38694
850.38735
850.38775
850.38812
850.38847
850.38881
850.38912
850.38941
850.38969
850.38995
850.39019
850.39041
850.39061
850.3908
850.39098
850.39113
850.39128
850.39141
850.39152
850.39162
850.39171
850.39179
850.39185
850.3919
850.39194
850.39197
850.39199
850.392
850.392
850.39198
850.39196
850.39193
850.3919
850.39185
850.3918
850.39173
850.39167
850.39159
850.39151
850.39142
850.39132
850.39122
850.39111
850.391
850.39088
850.39076
850.39063
850.3905
850.39037
850.39023
850.39008
850.38994
850.38978
850.38963
850.38947
850.38931
850.38915
850.38898
850.38881
850.38864
850.38847
850.38829
850.38812
850.38794
850.38776
850.38757
850.38739
850.3872
850.38702
850.38683
850.38664
850.38645
850.38626
850.38607
850.38588
850.38568
850.38549
850.3853
850.3851
850.38491
850.38471
850.38452
850.38432
850.38413
850.38393
850.38374
850.38354
850.38335
850.38315
850.38296
850.38277
850.38257
850.38238
850.38218
850.38199
850.3818
850.38161
850.38142
850.38123
850.38104
850.38085
850.38066
850.38047
850.38028
850.38009
850.37991
850.37972
850.37954
850.37935
850.37917
850.37899
850.37881
850.37862
850.37844
850.37827
850.37809
850.37791
850.37773
850.37756
850.37738
850.37721
850.37703
850.37686
850.37669
850.37652
850.37635
850.37618
850.37601
850.37585
850.37568
850.37552
850.37535
850.37519
850.37503
850.37487
850.3747
850.37454
850.37439
850.37423
850.37407
850.37392
850.37376
850.37361
850.37345
850.3733
850.37315
850.373
850.37285
850.3727
850.37255
850.3724
850.37226
850.37211
850.37197
850.37182
850.37168
850.37154
850.37139
850.37126
850.37113
)
;

boundaryField
{
    exteriorWall
    {
        type            calculated;
        value           nonuniform List<scalar> 
200
(
850.35212
850.35313
850.35419
850.35527
850.35638
850.3575
850.35862
850.35976
850.36089
850.36202
850.36314
850.36426
850.36536
850.36645
850.36752
850.36857
850.3696
850.37061
850.3716
850.37256
850.3735
850.37442
850.37531
850.37617
850.37701
850.37783
850.37861
850.37937
850.3801
850.38081
850.38149
850.38215
850.38278
850.38338
850.38396
850.38452
850.38505
850.38556
850.38604
850.3865
850.38694
850.38735
850.38775
850.38812
850.38847
850.38881
850.38912
850.38941
850.38969
850.38995
850.39019
850.39041
850.39061
850.3908
850.39098
850.39113
850.39128
850.39141
850.39152
850.39162
850.39171
850.39179
850.39185
850.3919
850.39194
850.39197
850.39199
850.392
850.392
850.39198
850.39196
850.39193
850.3919
850.39185
850.3918
850.39173
850.39167
850.39159
850.39151
850.39142
850.39132
850.39122
850.39111
850.391
850.39088
850.39076
850.39063
850.3905
850.39037
850.39023
850.39008
850.38994
850.38978
850.38963
850.38947
850.38931
850.38915
850.38898
850.38881
850.38864
850.38847
850.38829
850.38812
850.38794
850.38776
850.38757
850.38739
850.3872
850.38702
850.38683
850.38664
850.38645
850.38626
850.38607
850.38588
850.38568
850.38549
850.3853
850.3851
850.38491
850.38471
850.38452
850.38432
850.38413
850.38393
850.38374
850.38354
850.38335
850.38315
850.38296
850.38277
850.38257
850.38238
850.38218
850.38199
850.3818
850.38161
850.38142
850.38123
850.38104
850.38085
850.38066
850.38047
850.38028
850.38009
850.37991
850.37972
850.37954
850.37935
850.37917
850.37899
850.37881
850.37862
850.37844
850.37827
850.37809
850.37791
850.37773
850.37756
850.37738
850.37721
850.37703
850.37686
850.37669
850.37652
850.37635
850.37618
850.37601
850.37585
850.37568
850.37552
850.37535
850.37519
850.37503
850.37487
850.3747
850.37454
850.37439
850.37423
850.37407
850.37392
850.37376
850.37361
850.37345
850.3733
850.37315
850.373
850.37285
850.3727
850.37255
850.3724
850.37226
850.37211
850.37197
850.37182
850.37168
850.37154
850.37139
850.37126
850.37113
)
;
    }
    inlet
    {
        type            calculated;
        value           uniform 850.35101;
    }
    outlet
    {
        type            calculated;
        value           uniform 850.3711;
    }
    walls
    {
        type            calculated;
        value           nonuniform List<scalar> 
200
(
850.35212
850.35313
850.35419
850.35527
850.35638
850.3575
850.35862
850.35976
850.36089
850.36202
850.36314
850.36426
850.36536
850.36645
850.36752
850.36857
850.3696
850.37061
850.3716
850.37256
850.3735
850.37442
850.37531
850.37617
850.37701
850.37783
850.37861
850.37937
850.3801
850.38081
850.38149
850.38215
850.38278
850.38338
850.38396
850.38452
850.38505
850.38556
850.38604
850.3865
850.38694
850.38735
850.38775
850.38812
850.38847
850.38881
850.38912
850.38941
850.38969
850.38995
850.39019
850.39041
850.39061
850.3908
850.39098
850.39113
850.39128
850.39141
850.39152
850.39162
850.39171
850.39179
850.39185
850.3919
850.39194
850.39197
850.39199
850.392
850.392
850.39198
850.39196
850.39193
850.3919
850.39185
850.3918
850.39173
850.39167
850.39159
850.39151
850.39142
850.39132
850.39122
850.39111
850.391
850.39088
850.39076
850.39063
850.3905
850.39037
850.39023
850.39008
850.38994
850.38978
850.38963
850.38947
850.38931
850.38915
850.38898
850.38881
850.38864
850.38847
850.38829
850.38812
850.38794
850.38776
850.38757
850.38739
850.3872
850.38702
850.38683
850.38664
850.38645
850.38626
850.38607
850.38588
850.38568
850.38549
850.3853
850.3851
850.38491
850.38471
850.38452
850.38432
850.38413
850.38393
850.38374
850.38354
850.38335
850.38315
850.38296
850.38277
850.38257
850.38238
850.38218
850.38199
850.3818
850.38161
850.38142
850.38123
850.38104
850.38085
850.38066
850.38047
850.38028
850.38009
850.37991
850.37972
850.37954
850.37935
850.37917
850.37899
850.37881
850.37862
850.37844
850.37827
850.37809
850.37791
850.37773
850.37756
850.37738
850.37721
850.37703
850.37686
850.37669
850.37652
850.37635
850.37618
850.37601
850.37585
850.37568
850.37552
850.37535
850.37519
850.37503
850.37487
850.3747
850.37454
850.37439
850.37423
850.37407
850.37392
850.37376
850.37361
850.37345
850.3733
850.37315
850.373
850.37285
850.3727
850.37255
850.3724
850.37226
850.37211
850.37197
850.37182
850.37168
850.37154
850.37139
850.37126
850.37113
)
;
    }
    frontAndBack
    {
        type            empty;
    }
}


// ************************************************************************* //
