/*--------------------------------*- C++ -*----------------------------------*\
  =========                 |
  \\      /  F ield         | OpenFOAM: The Open Source CFD Toolbox
   \\    /   O peration     | Website:  https://openfoam.org
    \\  /    A nd           | Version:  10
     \\/     M anipulation  |
\*---------------------------------------------------------------------------*/
FoamFile
{
    format      ascii;
    class       volScalarField;
    location    "4900/FLUID";
    object      kappaEff;
}
// * * * * * * * * * * * * * * * * * * * * * * * * * * * * * * * * * * * * * //

dimensions      [1 1 -3 -1 0 0 0];

internalField   nonuniform List<scalar> 
200
(
1.953162
2.0180596
2.0337411
2.0447824
2.0604499
2.0762278
2.0916001
2.1069835
2.1223832
2.1377519
2.1530828
2.1683709
2.1836081
2.198787
2.2139007
2.2289429
2.2439075
2.2587888
2.2735816
2.2882809
2.3028819
2.3173804
2.3317723
2.3460539
2.3602217
2.3742727
2.3882039
2.4020126
2.4156966
2.4292535
2.4426814
2.4559787
2.4691436
2.482175
2.4950716
2.5078325
2.5204567
2.5329436
2.5452928
2.5575037
2.5695762
2.5815101
2.5933053
2.6049621
2.6164805
2.627861
2.6391038
2.6502094
2.6611785
2.6720117
2.6827096
2.693273
2.7037028
2.7139999
2.7241651
2.7341996
2.7441043
2.7538803
2.7635287
2.7730507
2.7824475
2.7917202
2.8008702
2.8098986
2.8188068
2.827596
2.8362676
2.8448229
2.8532631
2.8615898
2.8698042
2.8779077
2.8859016
2.8937873
2.9015662
2.9092397
2.9168091
2.9242758
2.9316411
2.9389064
2.9460731
2.9531425
2.9601159
2.9669947
2.9737801
2.9804736
2.9870763
2.9935896
3.0000148
3.0063531
3.0126058
3.0187741
3.0248593
3.0308625
3.036785
3.0426279
3.0483925
3.0540798
3.0596911
3.0652275
3.07069
3.0760799
3.0813981
3.0866458
3.0918239
3.0969337
3.101976
3.1069519
3.1118624
3.1167084
3.1214911
3.1262112
3.1308698
3.1354677
3.140006
3.1444854
3.1489069
3.1532713
3.1575795
3.1618324
3.1660307
3.1701753
3.174267
3.1783066
3.1822948
3.1862325
3.1901203
3.193959
3.1977494
3.2014921
3.2051878
3.2088373
3.2124412
3.2160002
3.219515
3.2229861
3.2264143
3.2298001
3.2331442
3.2364471
3.2397095
3.2429319
3.246115
3.2492592
3.2523651
3.2554334
3.2584644
3.2614588
3.264417
3.2673396
3.270227
3.2730798
3.2758984
3.2786833
3.281435
3.2841539
3.2868405
3.2894952
3.2921185
3.2947108
3.2972725
3.2998041
3.3023058
3.3047782
3.3072217
3.3096365
3.3120232
3.314382
3.3167134
3.3190176
3.3212952
3.3235464
3.3257715
3.3279709
3.330145
3.332294
3.3344184
3.3365183
3.3385942
3.3406463
3.342675
3.3446805
3.3466631
3.3486231
3.3505609
3.3524767
3.3543707
3.3562433
3.3580946
3.3599251
3.3617348
3.3635242
3.3652934
3.3670428
3.3687716
3.3704836
3.3721635
3.3738465
3.3753317
3.3768785
)
;

boundaryField
{
    exteriorWall
    {
        type            calculated;
        value           nonuniform List<scalar> 
200
(
1.953162
2.0180596
2.0337411
2.0447824
2.0604499
2.0762278
2.0916001
2.1069835
2.1223832
2.1377519
2.1530828
2.1683709
2.1836081
2.198787
2.2139007
2.2289429
2.2439075
2.2587888
2.2735816
2.2882809
2.3028819
2.3173804
2.3317723
2.3460539
2.3602217
2.3742727
2.3882039
2.4020126
2.4156966
2.4292535
2.4426814
2.4559787
2.4691436
2.482175
2.4950716
2.5078325
2.5204567
2.5329436
2.5452928
2.5575037
2.5695762
2.5815101
2.5933053
2.6049621
2.6164805
2.627861
2.6391038
2.6502094
2.6611785
2.6720117
2.6827096
2.693273
2.7037028
2.7139999
2.7241651
2.7341996
2.7441043
2.7538803
2.7635287
2.7730507
2.7824475
2.7917202
2.8008702
2.8098986
2.8188068
2.827596
2.8362676
2.8448229
2.8532631
2.8615898
2.8698042
2.8779077
2.8859016
2.8937873
2.9015662
2.9092397
2.9168091
2.9242758
2.9316411
2.9389064
2.9460731
2.9531425
2.9601159
2.9669947
2.9737801
2.9804736
2.9870763
2.9935896
3.0000148
3.0063531
3.0126058
3.0187741
3.0248593
3.0308625
3.036785
3.0426279
3.0483925
3.0540798
3.0596911
3.0652275
3.07069
3.0760799
3.0813981
3.0866458
3.0918239
3.0969337
3.101976
3.1069519
3.1118624
3.1167084
3.1214911
3.1262112
3.1308698
3.1354677
3.140006
3.1444854
3.1489069
3.1532713
3.1575795
3.1618324
3.1660307
3.1701753
3.174267
3.1783066
3.1822948
3.1862325
3.1901203
3.193959
3.1977494
3.2014921
3.2051878
3.2088373
3.2124412
3.2160002
3.219515
3.2229861
3.2264143
3.2298001
3.2331442
3.2364471
3.2397095
3.2429319
3.246115
3.2492592
3.2523651
3.2554334
3.2584644
3.2614588
3.264417
3.2673396
3.270227
3.2730798
3.2758984
3.2786833
3.281435
3.2841539
3.2868405
3.2894952
3.2921185
3.2947108
3.2972725
3.2998041
3.3023058
3.3047782
3.3072217
3.3096365
3.3120232
3.314382
3.3167134
3.3190176
3.3212952
3.3235464
3.3257715
3.3279709
3.330145
3.332294
3.3344184
3.3365183
3.3385942
3.3406463
3.342675
3.3446805
3.3466631
3.3486231
3.3505609
3.3524767
3.3543707
3.3562433
3.3580946
3.3599251
3.3617348
3.3635242
3.3652934
3.3670428
3.3687716
3.3704836
3.3721635
3.3738465
3.3753317
3.3768785
)
;
    }
    inlet
    {
        type            calculated;
        value           uniform 1.9822673;
    }
    outlet
    {
        type            calculated;
        value           uniform 3.376632;
    }
    walls
    {
        type            calculated;
        value           nonuniform List<scalar> 
200
(
1.953162
2.0180596
2.0337411
2.0447824
2.0604499
2.0762278
2.0916001
2.1069835
2.1223832
2.1377519
2.1530828
2.1683709
2.1836081
2.198787
2.2139007
2.2289429
2.2439075
2.2587888
2.2735816
2.2882809
2.3028819
2.3173804
2.3317723
2.3460539
2.3602217
2.3742727
2.3882039
2.4020126
2.4156966
2.4292535
2.4426814
2.4559787
2.4691436
2.482175
2.4950716
2.5078325
2.5204567
2.5329436
2.5452928
2.5575037
2.5695762
2.5815101
2.5933053
2.6049621
2.6164805
2.627861
2.6391038
2.6502094
2.6611785
2.6720117
2.6827096
2.693273
2.7037028
2.7139999
2.7241651
2.7341996
2.7441043
2.7538803
2.7635287
2.7730507
2.7824475
2.7917202
2.8008702
2.8098986
2.8188068
2.827596
2.8362676
2.8448229
2.8532631
2.8615898
2.8698042
2.8779077
2.8859016
2.8937873
2.9015662
2.9092397
2.9168091
2.9242758
2.9316411
2.9389064
2.9460731
2.9531425
2.9601159
2.9669947
2.9737801
2.9804736
2.9870763
2.9935896
3.0000148
3.0063531
3.0126058
3.0187741
3.0248593
3.0308625
3.036785
3.0426279
3.0483925
3.0540798
3.0596911
3.0652275
3.07069
3.0760799
3.0813981
3.0866458
3.0918239
3.0969337
3.101976
3.1069519
3.1118624
3.1167084
3.1214911
3.1262112
3.1308698
3.1354677
3.140006
3.1444854
3.1489069
3.1532713
3.1575795
3.1618324
3.1660307
3.1701753
3.174267
3.1783066
3.1822948
3.1862325
3.1901203
3.193959
3.1977494
3.2014921
3.2051878
3.2088373
3.2124412
3.2160002
3.219515
3.2229861
3.2264143
3.2298001
3.2331442
3.2364471
3.2397095
3.2429319
3.246115
3.2492592
3.2523651
3.2554334
3.2584644
3.2614588
3.264417
3.2673396
3.270227
3.2730798
3.2758984
3.2786833
3.281435
3.2841539
3.2868405
3.2894952
3.2921185
3.2947108
3.2972725
3.2998041
3.3023058
3.3047782
3.3072217
3.3096365
3.3120232
3.314382
3.3167134
3.3190176
3.3212952
3.3235464
3.3257715
3.3279709
3.330145
3.332294
3.3344184
3.3365183
3.3385942
3.3406463
3.342675
3.3446805
3.3466631
3.3486231
3.3505609
3.3524767
3.3543707
3.3562433
3.3580946
3.3599251
3.3617348
3.3635242
3.3652934
3.3670428
3.3687716
3.3704836
3.3721635
3.3738465
3.3753317
3.3768785
)
;
    }
    frontAndBack
    {
        type            empty;
    }
}


// ************************************************************************* //
