/*--------------------------------*- C++ -*----------------------------------*\
  =========                 |
  \\      /  F ield         | OpenFOAM: The Open Source CFD Toolbox
   \\    /   O peration     | Website:  https://openfoam.org
    \\  /    A nd           | Version:  10
     \\/     M anipulation  |
\*---------------------------------------------------------------------------*/
FoamFile
{
    format      ascii;
    class       volScalarField;
    location    "4900/FLUID";
    object      kappaEffSolid;
}
// * * * * * * * * * * * * * * * * * * * * * * * * * * * * * * * * * * * * * //

dimensions      [1 1 -3 -1 0 0 0];

internalField   nonuniform List<scalar> 
200
(
0.097917477
0.09965774
0.10138304
0.10309391
0.10479313
0.10648033
0.10815515
0.10981751
0.11146731
0.11310442
0.11472873
0.11634013
0.1179385
0.11952375
0.12109578
0.1226545
0.12419983
0.1257317
0.12725003
0.12875475
0.13024583
0.13172319
0.13318682
0.13463666
0.1360727
0.1374949
0.13890327
0.14029779
0.14167846
0.14304529
0.1443983
0.14573749
0.1470629
0.14837455
0.14967248
0.15095674
0.15222737
0.15348441
0.15472793
0.15595799
0.15717466
0.15837799
0.15956806
0.16074496
0.16190875
0.16305953
0.16419737
0.16532238
0.16643463
0.16753422
0.16862126
0.16969584
0.17075805
0.17180801
0.17284581
0.17387157
0.17488539
0.17588738
0.17687764
0.17785629
0.17882345
0.17977921
0.1807237
0.18165703
0.18257932
0.18349067
0.1843912
0.18528103
0.18616027
0.18702904
0.18788745
0.18873561
0.18957365
0.19040167
0.19121978
0.19202811
0.19282676
0.19361585
0.19439548
0.19516578
0.19592684
0.19667878
0.19742172
0.19815574
0.19888098
0.19959752
0.20030549
0.20100497
0.20169608
0.20237892
0.2030536
0.20372021
0.20437885
0.20502962
0.20567263
0.20630796
0.20693572
0.20755601
0.2081689
0.20877451
0.20937292
0.20996422
0.2105485
0.21112586
0.21169637
0.21226013
0.21281723
0.21336774
0.21391176
0.21444936
0.21498062
0.21550564
0.21602448
0.21653723
0.21704397
0.21754476
0.21803969
0.21852884
0.21901227
0.21949006
0.21996228
0.220429
0.22089029
0.22134622
0.22179687
0.22224229
0.22268255
0.22311772
0.22354786
0.22397303
0.22439331
0.22480875
0.22521941
0.22562535
0.22602663
0.22642331
0.22681545
0.2272031
0.22758633
0.22796518
0.22833971
0.22870998
0.22907603
0.22943793
0.22979571
0.23014944
0.23049917
0.23084493
0.23118679
0.23152478
0.23185896
0.23218938
0.23251608
0.2328391
0.23315849
0.2334743
0.23378656
0.23409533
0.23440064
0.23470253
0.23500106
0.23529625
0.23558815
0.23587679
0.23616223
0.23644449
0.23672361
0.23699963
0.23727259
0.23754253
0.23780947
0.23807347
0.23833454
0.23859273
0.23884806
0.23910058
0.23935032
0.23959731
0.23984158
0.24008316
0.24032209
0.2405584
0.24079211
0.24102326
0.24125187
0.24147799
0.24170162
0.24192282
0.24214159
0.24235797
0.24257199
0.24278368
0.24299305
0.24320014
0.24340497
0.24360752
0.24380761
0.24400429
0.24419262
0.24434803
)
;

boundaryField
{
    exteriorWall
    {
        type            calculated;
        value           nonuniform List<scalar> 
200
(
0.097917477
0.09965774
0.10138304
0.10309391
0.10479313
0.10648033
0.10815515
0.10981751
0.11146731
0.11310442
0.11472873
0.11634013
0.1179385
0.11952375
0.12109578
0.1226545
0.12419983
0.1257317
0.12725003
0.12875475
0.13024583
0.13172319
0.13318682
0.13463666
0.1360727
0.1374949
0.13890327
0.14029779
0.14167846
0.14304529
0.1443983
0.14573749
0.1470629
0.14837455
0.14967248
0.15095674
0.15222737
0.15348441
0.15472793
0.15595799
0.15717466
0.15837799
0.15956806
0.16074496
0.16190875
0.16305953
0.16419737
0.16532238
0.16643463
0.16753422
0.16862126
0.16969584
0.17075805
0.17180801
0.17284581
0.17387157
0.17488539
0.17588738
0.17687764
0.17785629
0.17882345
0.17977921
0.1807237
0.18165703
0.18257932
0.18349067
0.1843912
0.18528103
0.18616027
0.18702904
0.18788745
0.18873561
0.18957365
0.19040167
0.19121978
0.19202811
0.19282676
0.19361585
0.19439548
0.19516578
0.19592684
0.19667878
0.19742172
0.19815574
0.19888098
0.19959752
0.20030549
0.20100497
0.20169608
0.20237892
0.2030536
0.20372021
0.20437885
0.20502962
0.20567263
0.20630796
0.20693572
0.20755601
0.2081689
0.20877451
0.20937292
0.20996422
0.2105485
0.21112586
0.21169637
0.21226013
0.21281723
0.21336774
0.21391176
0.21444936
0.21498062
0.21550564
0.21602448
0.21653723
0.21704397
0.21754476
0.21803969
0.21852884
0.21901227
0.21949006
0.21996228
0.220429
0.22089029
0.22134622
0.22179687
0.22224229
0.22268255
0.22311772
0.22354786
0.22397303
0.22439331
0.22480875
0.22521941
0.22562535
0.22602663
0.22642331
0.22681545
0.2272031
0.22758633
0.22796518
0.22833971
0.22870998
0.22907603
0.22943793
0.22979571
0.23014944
0.23049917
0.23084493
0.23118679
0.23152478
0.23185896
0.23218938
0.23251608
0.2328391
0.23315849
0.2334743
0.23378656
0.23409533
0.23440064
0.23470253
0.23500106
0.23529625
0.23558815
0.23587679
0.23616223
0.23644449
0.23672361
0.23699963
0.23727259
0.23754253
0.23780947
0.23807347
0.23833454
0.23859273
0.23884806
0.23910058
0.23935032
0.23959731
0.23984158
0.24008316
0.24032209
0.2405584
0.24079211
0.24102326
0.24125187
0.24147799
0.24170162
0.24192282
0.24214159
0.24235797
0.24257199
0.24278368
0.24299305
0.24320014
0.24340497
0.24360752
0.24380761
0.24400429
0.24419262
0.24434803
)
;
    }
    inlet
    {
        type            calculated;
        value           uniform 0.095947459;
    }
    outlet
    {
        type            calculated;
        value           uniform 0.24434803;
    }
    walls
    {
        type            calculated;
        value           nonuniform List<scalar> 
200
(
0.097917477
0.09965774
0.10138304
0.10309391
0.10479313
0.10648033
0.10815515
0.10981751
0.11146731
0.11310442
0.11472873
0.11634013
0.1179385
0.11952375
0.12109578
0.1226545
0.12419983
0.1257317
0.12725003
0.12875475
0.13024583
0.13172319
0.13318682
0.13463666
0.1360727
0.1374949
0.13890327
0.14029779
0.14167846
0.14304529
0.1443983
0.14573749
0.1470629
0.14837455
0.14967248
0.15095674
0.15222737
0.15348441
0.15472793
0.15595799
0.15717466
0.15837799
0.15956806
0.16074496
0.16190875
0.16305953
0.16419737
0.16532238
0.16643463
0.16753422
0.16862126
0.16969584
0.17075805
0.17180801
0.17284581
0.17387157
0.17488539
0.17588738
0.17687764
0.17785629
0.17882345
0.17977921
0.1807237
0.18165703
0.18257932
0.18349067
0.1843912
0.18528103
0.18616027
0.18702904
0.18788745
0.18873561
0.18957365
0.19040167
0.19121978
0.19202811
0.19282676
0.19361585
0.19439548
0.19516578
0.19592684
0.19667878
0.19742172
0.19815574
0.19888098
0.19959752
0.20030549
0.20100497
0.20169608
0.20237892
0.2030536
0.20372021
0.20437885
0.20502962
0.20567263
0.20630796
0.20693572
0.20755601
0.2081689
0.20877451
0.20937292
0.20996422
0.2105485
0.21112586
0.21169637
0.21226013
0.21281723
0.21336774
0.21391176
0.21444936
0.21498062
0.21550564
0.21602448
0.21653723
0.21704397
0.21754476
0.21803969
0.21852884
0.21901227
0.21949006
0.21996228
0.220429
0.22089029
0.22134622
0.22179687
0.22224229
0.22268255
0.22311772
0.22354786
0.22397303
0.22439331
0.22480875
0.22521941
0.22562535
0.22602663
0.22642331
0.22681545
0.2272031
0.22758633
0.22796518
0.22833971
0.22870998
0.22907603
0.22943793
0.22979571
0.23014944
0.23049917
0.23084493
0.23118679
0.23152478
0.23185896
0.23218938
0.23251608
0.2328391
0.23315849
0.2334743
0.23378656
0.23409533
0.23440064
0.23470253
0.23500106
0.23529625
0.23558815
0.23587679
0.23616223
0.23644449
0.23672361
0.23699963
0.23727259
0.23754253
0.23780947
0.23807347
0.23833454
0.23859273
0.23884806
0.23910058
0.23935032
0.23959731
0.23984158
0.24008316
0.24032209
0.2405584
0.24079211
0.24102326
0.24125187
0.24147799
0.24170162
0.24192282
0.24214159
0.24235797
0.24257199
0.24278368
0.24299305
0.24320014
0.24340497
0.24360752
0.24380761
0.24400429
0.24419262
0.24434803
)
;
    }
    frontAndBack
    {
        type            empty;
    }
}


// ************************************************************************* //
