/*--------------------------------*- C++ -*----------------------------------*\
  =========                 |
  \\      /  F ield         | OpenFOAM: The Open Source CFD Toolbox
   \\    /   O peration     | Website:  https://openfoam.org
    \\  /    A nd           | Version:  10
     \\/     M anipulation  |
\*---------------------------------------------------------------------------*/
FoamFile
{
    format      ascii;
    class       volScalarField;
    location    "4900/FLUID";
    object      p;
}
// * * * * * * * * * * * * * * * * * * * * * * * * * * * * * * * * * * * * * //

dimensions      [1 -1 -2 0 0 0 0];

internalField   nonuniform List<scalar> 
200
(
103459.48
103454.89
103451.54
103448.42
103445.07
103441.62
103438.09
103434.47
103430.76
103426.96
103423.07
103419.08
103415.01
103410.84
103406.59
103402.24
103397.79
103393.26
103388.63
103383.91
103379.1
103374.19
103369.19
103364.1
103358.91
103353.63
103348.26
103342.79
103337.23
103331.58
103325.83
103320
103314.07
103308.04
103301.93
103295.72
103289.42
103283.03
103276.55
103269.98
103263.31
103256.56
103249.71
103242.78
103235.75
103228.64
103221.43
103214.14
103206.76
103199.29
103191.74
103184.09
103176.36
103168.54
103160.64
103152.65
103144.57
103136.41
103128.17
103119.84
103111.43
103102.93
103094.35
103085.69
103076.94
103068.12
103059.21
103050.23
103041.16
103032.01
103022.78
103013.48
103004.09
102994.63
102985.09
102975.48
102965.78
102956.01
102946.17
102936.25
102926.25
102916.19
102906.04
102895.83
102885.54
102875.18
102864.75
102854.24
102843.67
102833.03
102822.31
102811.53
102800.68
102789.76
102778.77
102767.71
102756.59
102745.4
102734.14
102722.82
102711.44
102699.99
102688.47
102676.89
102665.25
102653.55
102641.78
102629.95
102618.06
102606.11
102594.1
102582.03
102569.9
102557.71
102545.47
102533.16
102520.8
102508.38
102495.9
102483.37
102470.78
102458.13
102445.43
102432.68
102419.87
102407.01
102394.09
102381.12
102368.1
102355.03
102341.9
102328.73
102315.5
102302.22
102288.9
102275.52
102262.09
102248.62
102235.1
102221.53
102207.91
102194.24
102180.53
102166.77
102152.97
102139.12
102125.22
102111.28
102097.3
102083.27
102069.19
102055.08
102040.92
102026.72
102012.47
101998.18
101983.86
101969.49
101955.08
101940.62
101926.13
101911.6
101897.03
101882.42
101867.77
101853.08
101838.36
101823.59
101808.79
101793.95
101779.08
101764.16
101749.21
101734.23
101719.21
101704.15
101689.06
101673.93
101658.77
101643.58
101628.35
101613.08
101597.79
101582.46
101567.09
101551.7
101536.27
101520.81
101505.32
101489.8
101474.25
101458.66
101443.04
101427.4
101411.72
101396.02
101380.28
101364.52
101348.72
101332.92
)
;

boundaryField
{
    exteriorWall
    {
        type            slip;
    }
    inlet
    {
        type            zeroGradient;
    }
    outlet
    {
        type            fixedValue;
        value           uniform 101325;
    }
    walls
    {
        type            slip;
    }
    frontAndBack
    {
        type            empty;
    }
}


// ************************************************************************* //
