/*--------------------------------*- C++ -*----------------------------------*\
  =========                 |
  \\      /  F ield         | OpenFOAM: The Open Source CFD Toolbox
   \\    /   O peration     | Website:  https://openfoam.org
    \\  /    A nd           | Version:  10
     \\/     M anipulation  |
\*---------------------------------------------------------------------------*/
FoamFile
{
    format      ascii;
    class       volScalarField;
    location    "4900/FLUID";
    object      T;
}
// * * * * * * * * * * * * * * * * * * * * * * * * * * * * * * * * * * * * * //

dimensions      [0 0 0 1 0 0 0];

internalField   nonuniform List<scalar> 
200
(
307.07428
313.32805
319.53245
325.68927
331.80825
337.88794
343.92701
349.92513
355.88194
361.79706
367.67013
373.50086
379.28898
385.03427
390.73652
396.39557
402.01127
407.58351
413.11219
418.59724
424.03863
429.43632
434.79032
440.10063
445.36728
450.59032
455.76982
460.90585
465.9985
471.04788
476.0541
481.01728
485.93758
490.81513
495.65009
500.44263
505.19293
509.90116
514.56752
519.1922
523.77541
528.31735
532.81825
537.27832
541.69779
546.07688
550.41583
554.71489
558.97428
563.19425
567.37506
571.51695
575.62017
579.68498
583.71165
587.70042
591.65156
595.56533
599.44201
603.28184
607.0851
610.85206
614.58298
618.27814
621.9378
625.56224
629.15172
632.70651
636.22689
639.71312
643.16548
646.58423
649.96965
653.322
656.64156
659.92859
663.18336
666.40613
669.59718
672.75677
675.88517
678.98263
682.04942
685.08581
688.09205
691.06841
694.01514
696.9325
699.82075
702.68014
705.51093
708.31337
711.08771
713.83421
716.55311
719.24465
721.90909
724.54667
727.15763
729.74221
732.30066
734.83321
737.34011
739.82158
742.27786
744.70919
747.11579
749.4979
751.85573
754.18953
756.49952
758.78591
761.04893
763.2888
765.50574
767.69996
769.87169
772.02113
774.1485
776.25401
778.33786
780.40027
782.44144
784.46158
786.46088
788.43955
790.39778
792.33579
794.25375
796.15187
798.03035
799.88936
801.7291
803.54977
805.35154
807.1346
808.89914
810.64534
812.37337
814.08343
815.77567
817.45029
819.10746
820.74734
822.37012
823.97595
825.56502
827.13748
828.6935
830.23325
831.75689
833.26458
834.75648
836.23274
837.69354
839.13901
840.56932
841.98462
843.38506
844.77079
846.14196
847.49871
848.84119
850.16955
851.48393
852.78447
854.07131
855.3446
856.60446
857.85104
859.08446
860.30488
861.51241
862.70719
863.88935
865.05903
866.21634
867.36142
868.49439
869.61538
870.7245
871.82189
872.90765
873.98192
875.04481
876.09643
877.1369
878.16634
879.18486
880.19257
881.18959
882.17602
883.15197
884.11755
885.07282
886.01771
886.95138
887.86929
888.74839
889.47382
)
;

boundaryField
{
    exteriorWall
    {
        type            slip;
    }
    inlet
    {
        type            fixedValue;
        value           uniform 300;
    }
    outlet
    {
        type            zeroGradient;
    }
    walls
    {
        type            slip;
    }
    frontAndBack
    {
        type            empty;
    }
}


// ************************************************************************* //
