/*--------------------------------*- C++ -*----------------------------------*\
  =========                 |
  \\      /  F ield         | OpenFOAM: The Open Source CFD Toolbox
   \\    /   O peration     | Website:  https://openfoam.org
    \\  /    A nd           | Version:  10
     \\/     M anipulation  |
\*---------------------------------------------------------------------------*/
FoamFile
{
    format      ascii;
    class       volScalarField;
    location    "4900/FLUID";
    object      T;
}
// * * * * * * * * * * * * * * * * * * * * * * * * * * * * * * * * * * * * * //

dimensions      [0 0 0 1 0 0 0];

internalField   nonuniform List<scalar> 
200
(
306.94826
313.09126
319.18597
325.23408
331.24526
337.21812
343.15139
349.04479
354.89799
360.71064
366.48243
372.21309
377.90239
383.55011
389.15609
394.72017
400.24222
405.72215
411.15987
416.55534
421.90851
427.21937
432.48792
437.71418
442.89818
448.03998
453.13964
458.19722
463.21284
468.18658
473.11856
478.00891
482.85775
487.66524
492.43152
497.15676
501.84112
506.48477
511.08791
515.65071
520.17338
524.65611
529.0991
533.50258
537.86675
542.19183
546.47804
550.72562
554.93479
559.10578
563.23883
567.33418
571.39207
575.41274
579.39644
583.34341
587.25391
591.12818
594.96647
598.76904
602.53614
606.26802
609.96495
613.62717
617.25494
620.84852
624.40817
627.93414
631.42669
634.88608
638.31256
641.70639
645.06783
648.39714
651.69457
654.96037
658.1948
661.39812
664.57058
667.71243
670.82392
673.90531
676.95685
679.97878
682.97136
685.93483
688.86944
691.77543
694.65306
697.50255
700.32416
703.11813
705.8847
708.6241
711.33657
714.02235
716.68167
719.31477
721.92188
724.50324
727.05906
729.58958
732.09502
734.57561
737.03158
739.46315
741.87053
744.25395
746.61363
748.94977
751.26261
753.55235
755.8192
758.06337
760.28508
762.48453
764.66193
766.81749
768.9514
771.06386
773.15509
775.22527
777.27461
779.3033
781.31154
783.29951
785.26742
787.21544
789.14378
791.05261
792.94211
794.81249
796.66391
798.49656
800.31062
802.10626
803.88367
805.64302
807.38448
809.10822
810.81442
812.50324
814.17486
815.82944
817.46714
819.08813
820.69257
822.28063
823.85246
825.40822
826.94806
828.47216
829.98065
831.47369
832.95143
834.41403
835.86163
837.29437
838.71242
840.1159
841.50497
842.87977
844.24043
845.58711
846.91992
848.23903
849.54455
850.83663
852.11539
853.38098
854.63352
855.87315
857.09998
858.31415
859.51579
860.70502
861.88197
863.04676
864.19951
865.34034
866.46938
867.58673
868.69252
869.78687
870.86988
871.94168
873.00237
874.05208
875.09089
876.11893
877.13631
878.14313
879.1395
880.12552
881.10124
882.0666
883.02074
883.95902
884.85791
885.59999
)
;

boundaryField
{
    exteriorWall
    {
        type            slip;
    }
    inlet
    {
        type            fixedValue;
        value           uniform 300;
    }
    outlet
    {
        type            zeroGradient;
    }
    walls
    {
        type            slip;
    }
    frontAndBack
    {
        type            empty;
    }
}


// ************************************************************************* //
