/*--------------------------------*- C++ -*----------------------------------*\
  =========                 |
  \\      /  F ield         | OpenFOAM: The Open Source CFD Toolbox
   \\    /   O peration     | Website:  https://openfoam.org
    \\  /    A nd           | Version:  10
     \\/     M anipulation  |
\*---------------------------------------------------------------------------*/
FoamFile
{
    format      ascii;
    class       volVectorField;
    location    "4900/FLUID";
    object      U;
}
// * * * * * * * * * * * * * * * * * * * * * * * * * * * * * * * * * * * * * //

dimensions      [0 1 -1 0 0 0 0];

internalField   nonuniform List<vector> 
200
(
(4.9918334 9.2354836e-20 0)
(5.2273256 1.1636997e-19 0)
(5.3300979 -2.598303e-19 0)
(5.419143 -4.2525702e-19 0)
(5.5202506 -1.7538786e-19 0)
(5.6210269 -1.982684e-20 0)
(5.720006 5.8848345e-20 0)
(5.8183852 7.7869949e-20 0)
(5.916204 7.0922449e-20 0)
(6.0133469 5.6831225e-20 0)
(6.1098128 4.3588785e-20 0)
(6.2056069 3.356782e-20 0)
(6.3007244 2.6767229e-20 0)
(6.3951614 2.2433142e-20 0)
(6.4889151 1.9734046e-20 0)
(6.5819835 1.7992469e-20 0)
(6.6743644 1.6735962e-20 0)
(6.7660566 1.5677992e-20 0)
(6.8570588 1.467363e-20 0)
(6.9473703 1.3671196e-20 0)
(7.0369907 1.267136e-20 0)
(7.1259198 1.2206604e-20 0)
(7.2141578 3.7481406e-19 0)
(7.3017053 3.260892e-19 0)
(7.3885628 -6.0102545e-20 0)
(7.4747314 -3.8274208e-20 0)
(7.5602122 -3.7947333e-20 0)
(7.6450068 -4.5371199e-19 0)
(7.7291167 -4.0781178e-19 0)
(7.8125437 3.9170033e-20 0)
(7.8952899 3.3216023e-20 0)
(7.9773574 2.9288043e-20 0)
(8.0587486 2.6076e-20 0)
(8.139466 -4.0482598e-19 0)
(8.2195121 -3.5689844e-19 0)
(8.2988897 1.0865454e-19 0)
(8.3776018 9.7464682e-20 0)
(8.4556514 8.7149492e-20 0)
(8.5330414 7.7426126e-20 0)
(8.6097752 -3.8330738e-19 0)
(8.6858561 -3.5178086e-19 0)
(8.7612875 1.1988446e-19 0)
(8.8360728 1.0894068e-19 0)
(8.9102156 1.0916344e-19 0)
(8.9837195 1.1096895e-19 0)
(9.0565882 1.0839653e-19 0)
(9.1288256 1.0075796e-19 0)
(9.2004353 9.0178521e-20 0)
(9.2714212 7.9041872e-20 0)
(9.3417873 6.8827569e-20 0)
(9.4115376 6.0057537e-20 0)
(9.480676 5.2672637e-20 0)
(9.5492065 4.6400993e-20 0)
(9.6171332 4.0972715e-20 0)
(9.6844603 3.619614e-20 0)
(9.7511918 3.1956467e-20 0)
(9.8173319 2.8187997e-20 0)
(9.8828847 2.4847711e-20 0)
(9.9478545 2.1899209e-20 0)
(10.012245 1.9306171e-20 0)
(10.076062 1.7031433e-20 0)
(10.139308 1.5038237e-20 0)
(10.201987 1.3291693e-20 0)
(10.264105 1.1759739e-20 0)
(10.325665 1.0413564e-20 0)
(10.386672 9.2276994e-21 0)
(10.44713 8.1799336e-21 0)
(10.507043 7.2485791e-21 0)
(10.566415 4.9620511e-21 0)
(10.62525 -8.7139045e-19 0)
(10.683554 6.544396e-21 0)
(10.74133 9.243415e-19 0)
(10.798582 7.2792057e-20 0)
(10.855315 -9.2619565e-19 0)
(10.911532 1.4356206e-19 0)
(10.967239 1.1299575e-18 0)
(11.022438 3.8317286e-20 0)
(11.077136 -9.0810743e-19 0)
(11.131334 -2.0840596e-19 0)
(11.185039 8.973126e-19 0)
(11.238253 2.2295604e-19 0)
(11.290982 -2.2790662e-20 0)
(11.343229 -8.4938755e-20 0)
(11.394998 -8.7937108e-20 0)
(11.446293 -7.1360108e-20 0)
(11.497119 -5.0817849e-20 0)
(11.547479 -3.376075e-20 0)
(11.597378 -2.2561889e-20 0)
(11.646819 -1.6483291e-20 0)
(11.695806 -1.3593503e-20 0)
(11.744345 -1.2064147e-20 0)
(11.792437 -1.0721268e-20 0)
(11.840088 -9.0832544e-21 0)
(11.887301 -8.7909499e-21 0)
(11.93408 -8.9877986e-19 0)
(11.98043 1.5731147e-19 0)
(12.026353 1.0592279e-18 0)
(12.071854 -3.1056393e-20 0)
(12.116936 -6.9111827e-19 0)
(12.161603 -4.7945932e-20 0)
(12.205859 -5.3240437e-19 0)
(12.249708 -9.0215725e-19 0)
(12.293154 -6.4290438e-19 0)
(12.336199 8.1636987e-21 0)
(12.378848 4.5927177e-19 0)
(12.421105 -1.3339363e-19 0)
(12.462972 -6.8147154e-19 0)
(12.504454 3.861635e-19 0)
(12.545554 4.8857524e-19 0)
(12.586276 -5.6514111e-19 0)
(12.626622 -5.3279896e-20 0)
(12.666597 -1.6106876e-19 0)
(12.706205 1.3075821e-18 0)
(12.745447 -1.8451824e-20 0)
(12.784329 -9.6206683e-19 0)
(12.822852 -7.643517e-19 0)
(12.861022 4.0965642e-19 0)
(12.89884 6.0685491e-19 0)
(12.93631 -6.7178235e-19 0)
(12.973436 -7.5068281e-19 0)
(13.01022 6.8566317e-19 0)
(13.046667 4.8031366e-19 0)
(13.082779 -7.7532076e-19 0)
(13.118559 -6.3834069e-19 0)
(13.15401 5.0524646e-19 0)
(13.189136 4.3144328e-19 0)
(13.22394 -6.2697502e-19 0)
(13.258425 -3.399973e-19 0)
(13.292593 6.4205634e-19 0)
(13.326448 8.2754275e-19 0)
(13.359994 -3.8413915e-19 0)
(13.393232 -9.0263458e-19 0)
(13.426166 4.8104902e-19 0)
(13.458798 7.5527268e-19 0)
(13.491132 -5.2274647e-19 0)
(13.523171 3.6602643e-19 0)
(13.554917 3.287859e-19 0)
(13.586374 1.4315777e-18 0)
(13.617543 1.1799218e-18 0)
(13.648428 -1.6812112e-19 0)
(13.679032 -1.2698313e-18 0)
(13.709357 -1.9041695e-19 0)
(13.739406 2.4105631e-19 0)
(13.769182 -7.3529172e-19 0)
(13.798687 1.4897679e-19 0)
(13.827925 1.392358e-18 0)
(13.856896 1.151723e-18 0)
(13.885606 -2.0349172e-19 0)
(13.914055 -1.1577058e-18 0)
(13.942246 1.7658344e-19 0)
(13.970182 -2.667546e-20 0)
(13.997866 -1.1587053e-18 0)
(14.0253 2.1188815e-19 0)
(14.052486 1.2362204e-18 0)
(14.079427 1.1307987e-18 0)
(14.106125 5.3848608e-22 0)
(14.132583 -1.0030961e-18 0)
(14.158803 2.4880947e-19 0)
(14.184787 -1.3914926e-19 0)
(14.210538 -1.366247e-18 0)
(14.236058 6.9377266e-20 0)
(14.26135 1.2119918e-19 0)
(14.286415 1.3469285e-18 0)
(14.311256 1.1582164e-18 0)
(14.335875 -2.2767719e-19 0)
(14.360274 -1.4213523e-18 0)
(14.384456 -2.8487487e-19 0)
(14.408423 -1.9243378e-19 0)
(14.432176 -1.0562669e-18 0)
(14.455718 2.8100558e-19 0)
(14.479052 1.4239087e-18 0)
(14.502178 1.1821866e-18 0)
(14.5251 -2.242806e-19 0)
(14.547819 -1.40391e-18 0)
(14.570338 -8.6632919e-20 0)
(14.592657 -1.9527479e-20 0)
(14.614781 -1.0648318e-18 0)
(14.636709 2.9079771e-19 0)
(14.658445 1.1550331e-18 0)
(14.67999 1.1433155e-18 0)
(14.701346 6.0161583e-20 0)
(14.722516 -1.2916323e-18 0)
(14.7435 -5.47921e-20 0)
(14.764301 -4.4402864e-20 0)
(14.784921 -1.031129e-18 0)
(14.805362 3.1626557e-19 0)
(14.825624 2.0729348e-19 0)
(14.845711 1.068752e-18 0)
(14.865624 1.0544425e-18 0)
(14.885364 -3.1298766e-20 0)
(14.904934 -1.2666198e-18 0)
(14.924335 -7.8392786e-20 0)
(14.943569 -2.0034151e-19 0)
(14.962638 -1.1056597e-18 0)
(14.981538 3.1634724e-19 0)
(15.000286 1.4601578e-18 0)
(15.018802 1.1984628e-18 0)
(15.037215 -2.4685789e-19 0)
(15.054355 -1.4548745e-18 0)
(15.070469 -2.4403972e-18 0)
)
;

boundaryField
{
    exteriorWall
    {
        type            slip;
    }
    inlet
    {
        type            fixedValue;
        value           uniform (5 0 0);
    }
    outlet
    {
        type            zeroGradient;
    }
    walls
    {
        type            slip;
    }
    frontAndBack
    {
        type            empty;
    }
}


// ************************************************************************* //
