/*--------------------------------*- C++ -*----------------------------------*\
  =========                 |
  \\      /  F ield         | OpenFOAM: The Open Source CFD Toolbox
   \\    /   O peration     | Website:  https://openfoam.org
    \\  /    A nd           | Version:  10
     \\/     M anipulation  |
\*---------------------------------------------------------------------------*/
FoamFile
{
    format      ascii;
    class       volVectorField;
    location    "4900/FLUID";
    object      U;
}
// * * * * * * * * * * * * * * * * * * * * * * * * * * * * * * * * * * * * * //

dimensions      [0 1 -1 0 0 0 0];

internalField   nonuniform List<vector> 
200
(
(4.9933496 1.8959357e-19 0)
(5.2313148 1.1895266e-19 0)
(5.3359041 -3.4852387e-19 0)
(5.4267087 -5.4851843e-19 0)
(5.5296204 -1.9775572e-19 0)
(5.6321838 1.1848949e-19 0)
(5.7329278 8.7343597e-20 0)
(5.8330549 6.8942794e-20 0)
(5.9326037 6.0575216e-20 0)
(6.0314577 5.6165896e-20 0)
(6.1296153 5.1869632e-20 0)
(6.2270813 4.6353946e-20 0)
(6.3238502 3.9721149e-20 0)
(6.4199178 3.2645052e-20 0)
(6.515281 2.5873353e-20 0)
(6.6099372 1.9975908e-20 0)
(6.7038844 1.5254686e-20 0)
(6.7971207 1.1759433e-20 0)
(6.8896449 9.3585096e-21 0)
(6.981456 7.8232748e-21 0)
(7.0725534 6.9008922e-21 0)
(7.1629368 6.8135737e-21 0)
(7.2526063 3.0463154e-19 0)
(7.3415623 2.8388863e-19 0)
(7.4298054 -3.0203915e-20 0)
(7.5173365 -3.3518769e-20 0)
(7.6041569 -3.5606071e-20 0)
(7.690268 -4.431075e-19 0)
(7.7756714 -3.894628e-19 0)
(7.8603689 6.2509027e-20 0)
(7.9443627 5.266351e-20 0)
(8.0276549 4.0775164e-20 0)
(8.1102479 3.0240351e-20 0)
(8.1921443 -4.8784711e-19 0)
(8.2733469 -3.9637599e-19 0)
(8.3538584 1.712802e-19 0)
(8.433682 1.2285529e-19 0)
(8.5128207 9.3100497e-20 0)
(8.5912778 7.8762503e-20 0)
(8.6690565 -4.1446284e-19 0)
(8.7461605 -3.8977713e-19 0)
(8.8225932 1.3283173e-19 0)
(8.8983583 1.5202871e-19 0)
(8.9734594 1.4544307e-19 0)
(9.0479005 1.2374831e-19 0)
(9.1216853 1.0150064e-19 0)
(9.1948178 8.5283363e-20 0)
(9.2673021 7.5347056e-20 0)
(9.339142 6.946243e-20 0)
(9.4103419 6.5295473e-20 0)
(9.4809057 6.1297758e-20 0)
(9.5508378 5.6780856e-20 0)
(9.6201423 5.167024e-20 0)
(9.6888235 4.6208128e-20 0)
(9.7568858 4.0724026e-20 0)
(9.8243334 3.550242e-20 0)
(9.8911707 3.0731636e-20 0)
(9.9574021 2.6503236e-20 0)
(10.023032 2.2834277e-20 0)
(10.088065 1.9694291e-20 0)
(10.152505 1.7028088e-20 0)
(10.216357 1.477171e-20 0)
(10.279625 1.286206e-20 0)
(10.342314 1.1241832e-20 0)
(10.404428 9.8614189e-21 0)
(10.465971 8.6790901e-21 0)
(10.526949 7.6603158e-21 0)
(10.587366 6.7748034e-21 0)
(10.647225 4.8831739e-21 0)
(10.706532 -7.3177569e-19 0)
(10.765291 3.3361964e-19 0)
(10.823506 9.2006282e-19 0)
(10.881183 -2.1069475e-19 0)
(10.938325 -8.1068364e-19 0)
(10.994936 2.3779939e-19 0)
(11.051022 8.7002985e-19 0)
(11.106586 -1.4627526e-19 0)
(11.161634 -8.9294706e-19 0)
(11.216168 -2.7411058e-19 0)
(11.270195 7.4458807e-19 0)
(11.323718 2.7428564e-19 0)
(11.376741 1.3714573e-19 0)
(11.429269 3.1387808e-20 0)
(11.481306 -3.0786492e-20 0)
(11.532857 -5.2115203e-20 0)
(11.583925 -5.0190941e-20 0)
(11.634515 -4.039385e-20 0)
(11.684631 -3.0997918e-20 0)
(11.734278 -2.4685518e-20 0)
(11.783459 -2.1248339e-20 0)
(11.832179 -1.9545703e-20 0)
(11.880441 -1.8501648e-20 0)
(11.928251 -1.7444348e-20 0)
(11.975611 -1.7914284e-20 0)
(12.022527 -1.0061953e-18 0)
(12.069002 2.9136442e-19 0)
(12.11504 1.2246279e-18 0)
(12.160645 -1.5555352e-19 0)
(12.205821 -6.6938892e-19 0)
(12.250572 9.4480761e-21 0)
(12.294902 -4.7630146e-19 0)
(12.338815 -8.5866256e-19 0)
(12.382315 -3.9572616e-19 0)
(12.425406 4.0866962e-19 0)
(12.46809 -8.1951899e-21 0)
(12.510373 -8.1540793e-19 0)
(12.552258 -3.4206392e-19 0)
(12.593749 4.7563532e-19 0)
(12.634849 -8.0222258e-20 0)
(12.675563 -8.6457459e-19 0)
(12.715893 -5.0078938e-19 0)
(12.755843 -3.4839014e-19 0)
(12.795418 1.4064444e-18 0)
(12.83462 3.4981709e-19 0)
(12.873453 -4.0054375e-19 0)
(12.911921 -7.080331e-19 0)
(12.950027 3.1739678e-19 0)
(12.987774 8.0651202e-19 0)
(13.025167 -4.6418302e-19 0)
(13.062208 -9.0456186e-19 0)
(13.098901 2.1470782e-19 0)
(13.13525 8.0010578e-19 0)
(13.171257 -2.6253833e-19 0)
(13.206926 -9.925394e-19 0)
(13.24226 2.3699883e-19 0)
(13.277262 3.1163684e-19 0)
(13.311936 -6.4839302e-19 0)
(13.346285 -4.7024188e-19 0)
(13.380313 5.1671323e-19 0)
(13.414021 7.8474722e-19 0)
(13.447414 -3.0223354e-19 0)
(13.480494 -5.3699941e-19 0)
(13.513264 5.8557116e-19 0)
(13.545729 3.7885563e-19 0)
(13.577889 -6.0305432e-19 0)
(13.60975 6.7919172e-19 0)
(13.641313 5.0934044e-19 0)
(13.672581 1.0037155e-18 0)
(13.703558 9.0261574e-19 0)
(13.734246 2.0118339e-19 0)
(13.764648 -7.2833066e-19 0)
(13.794768 3.6701292e-19 0)
(13.824607 -4.6467643e-20 0)
(13.854169 -1.0793818e-18 0)
(13.883456 2.6907058e-19 0)
(13.912472 1.0514986e-18 0)
(13.941218 1.0059579e-18 0)
(13.969698 4.0062346e-20 0)
(13.997914 -8.5511107e-19 0)
(14.025869 3.3025924e-19 0)
(14.053565 -1.4221633e-19 0)
(14.081006 -1.1600158e-18 0)
(14.108194 2.3487108e-19 0)
(14.13513 1.25204e-18 0)
(14.161819 9.8170809e-19 0)
(14.188262 -2.5102124e-19 0)
(14.214461 -1.202493e-18 0)
(14.24042 -5.9528836e-20 0)
(14.266141 -2.1223607e-19 0)
(14.291625 -1.1346307e-18 0)
(14.316876 2.5995087e-19 0)
(14.341896 2.7463452e-19 0)
(14.366688 1.4552619e-18 0)
(14.391253 1.2176576e-18 0)
(14.415593 -2.0062463e-19 0)
(14.439712 -1.3783121e-18 0)
(14.463611 4.9263432e-20 0)
(14.487293 6.1372201e-20 0)
(14.51076 -1.1294121e-18 0)
(14.534014 2.1138453e-19 0)
(14.557057 1.2991748e-18 0)
(14.579892 1.0197874e-18 0)
(14.60252 -3.536202e-19 0)
(14.624944 -1.416184e-18 0)
(14.647165 3.1513699e-20 0)
(14.669187 2.4341498e-19 0)
(14.69101 -1.0351454e-18 0)
(14.712638 5.5866018e-20 0)
(14.734071 1.1834087e-18 0)
(14.755313 9.8427383e-19 0)
(14.776364 -2.3056942e-19 0)
(14.797228 -1.328952e-18 0)
(14.817905 1.2099307e-19 0)
(14.838398 2.1876512e-19 0)
(14.858709 -1.0534361e-18 0)
(14.87884 1.5990581e-19 0)
(14.898792 1.252264e-19 0)
(14.918567 1.2328542e-18 0)
(14.938167 1.0680292e-18 0)
(14.957594 -1.5747733e-19 0)
(14.97685 -1.2918672e-18 0)
(14.995937 -1.1801996e-20 0)
(15.014855 -4.5576242e-20 0)
(15.033609 -1.1321872e-18 0)
(15.052193 2.0980937e-19 0)
(15.070625 1.3679324e-18 0)
(15.088825 1.1489736e-18 0)
(15.106923 -2.5683787e-19 0)
(15.123759 -1.45298e-18 0)
(15.139628 -2.4714875e-18 0)
)
;

boundaryField
{
    exteriorWall
    {
        type            slip;
    }
    inlet
    {
        type            fixedValue;
        value           uniform (5 0 0);
    }
    outlet
    {
        type            zeroGradient;
    }
    walls
    {
        type            slip;
    }
    frontAndBack
    {
        type            empty;
    }
}


// ************************************************************************* //
