/*--------------------------------*- C++ -*----------------------------------*\
  =========                 |
  \\      /  F ield         | OpenFOAM: The Open Source CFD Toolbox
   \\    /   O peration     | Website:  https://openfoam.org
    \\  /    A nd           | Version:  10
     \\/     M anipulation  |
\*---------------------------------------------------------------------------*/
FoamFile
{
    format      ascii;
    class       volScalarField;
    location    "800/FLUID";
    object      alphaEffFluid;
}
// * * * * * * * * * * * * * * * * * * * * * * * * * * * * * * * * * * * * * //

dimensions      [1 -1 -1 0 0 0 0];

internalField   nonuniform List<scalar> 
1200
(
0.0023116534
0.0023810222
0.0024694428
0.002554154
0.0026331881
0.0027055191
0.0027699434
0.0028265735
0.0028761357
0.0029194861
0.0029575071
0.0029910362
0.0030208234
0.0030475047
0.0030716156
0.0030936057
0.003113878
0.0031327635
0.0031505278
0.003167403
0.0031835854
0.0031992374
0.0032144919
0.0032294573
0.0032442205
0.0032588507
0.0032734016
0.0032879148
0.0033024209
0.0033169422
0.0033314938
0.0033460852
0.0033607212
0.0033754028
0.0033901284
0.0034048942
0.0034196954
0.0034345255
0.0034493771
0.003464242
0.003479112
0.0034939788
0.0035088344
0.0035236706
0.00353848
0.0035532551
0.0035679888
0.0035826747
0.0035973063
0.0036118779
0.0036263839
0.0036408192
0.0036551792
0.0036694599
0.0036836574
0.0036977685
0.0037117903
0.0037257203
0.0037395562
0.0037532962
0.0037669386
0.003780482
0.0037939255
0.0038072683
0.0038205132
0.0038336603
0.0038467092
0.0038596595
0.0038725111
0.003885264
0.0038979182
0.0039104738
0.0039229309
0.0039352899
0.003947551
0.0039597146
0.0039717812
0.0039837514
0.0039956257
0.0040074047
0.0040190892
0.0040306799
0.0040421775
0.004053583
0.0040648972
0.0040761208
0.004087255
0.0040983006
0.0041092585
0.0041201298
0.0041309154
0.0041416164
0.0041522337
0.0041627684
0.0041732215
0.004183594
0.0041938869
0.0042041014
0.0042142384
0.0042242988
0.0042342839
0.0042441945
0.0042540316
0.0042637963
0.0042734895
0.0042831123
0.0042926655
0.0043021502
0.0043115672
0.0043209176
0.0043302022
0.0043394219
0.0043485776
0.0043576703
0.0043667007
0.0043756697
0.0043845782
0.0043934269
0.0044022168
0.0044109485
0.004419623
0.0044282408
0.0044368029
0.0044453099
0.0044537625
0.0044621616
0.0044705077
0.0044788016
0.0044870439
0.0044952354
0.0045033766
0.0045114682
0.0045195108
0.004527505
0.0045354515
0.0045433508
0.0045512035
0.0045590102
0.0045667714
0.0045744876
0.0045821595
0.0045897875
0.0045973721
0.0046049138
0.0046124132
0.0046198707
0.0046272868
0.0046346619
0.0046419966
0.0046492912
0.0046565462
0.0046637621
0.0046709392
0.0046780779
0.0046851787
0.004692242
0.0046992682
0.0047062576
0.0047132106
0.0047201276
0.004727009
0.004733855
0.0047406661
0.0047474427
0.0047541849
0.0047608933
0.004767568
0.0047742094
0.0047808179
0.0047873937
0.0047939372
0.0048004485
0.0048069282
0.0048133763
0.0048197932
0.0048261793
0.0048325346
0.0048388596
0.0048451545
0.0048514195
0.004857655
0.0048638611
0.004870038
0.0048761862
0.0048823057
0.0048883968
0.0048944598
0.0049004948
0.004906502
0.0049124817
0.0049184338
0.0049243585
0.0049302553
0.0049361241
0.0049419621
0.0049477718
0.0049535198
0.0049592925
0.0049645157
0.0049709776
0.0023275255
0.0024167935
0.0025037279
0.0025763721
0.0026401061
0.0026953929
0.0027426612
0.0027833414
0.0028188136
0.002850235
0.0028785884
0.0029046681
0.0029291096
0.0029524353
0.0029750596
0.0029972293
0.0030190955
0.0030407694
0.0030623243
0.0030837987
0.0031052094
0.0031265604
0.0031478465
0.0031690581
0.0031901827
0.003211207
0.0032321176
0.0032529017
0.0032735477
0.003294045
0.0033143843
0.0033345574
0.0033545575
0.0033743785
0.0033940156
0.0034134649
0.0034327231
0.0034517872
0.0034706554
0.0034893264
0.0035077998
0.0035260755
0.0035441536
0.0035620345
0.0035797188
0.0035972076
0.0036145018
0.0036316028
0.0036485121
0.0036652318
0.0036817639
0.0036981175
0.0037142954
0.0037302993
0.0037461309
0.003761792
0.0037772843
0.0037926096
0.0038077696
0.0038227659
0.0038376002
0.0038522742
0.0038667893
0.0038811472
0.0038953474
0.0039093912
0.0039232803
0.0039370166
0.0039506018
0.003964038
0.003977327
0.0039904709
0.0040034717
0.0040163315
0.0040290522
0.0040416359
0.0040540846
0.0040664004
0.0040785852
0.004090641
0.0041025698
0.0041143735
0.0041260541
0.0041376134
0.0041490532
0.0041603755
0.0041715821
0.0041826747
0.004193655
0.0042045249
0.0042152861
0.0042259401
0.0042364886
0.0042469333
0.0042572758
0.0042675176
0.0042776602
0.0042877052
0.0042976539
0.004307508
0.0043172687
0.0043269375
0.0043365158
0.0043460048
0.004355406
0.0043647205
0.0043739496
0.0043830947
0.0043921568
0.0044011372
0.0044100371
0.0044188575
0.0044275996
0.0044362645
0.0044448533
0.0044533669
0.0044618065
0.004470173
0.0044784674
0.0044866907
0.0044948439
0.0045029277
0.0045109433
0.0045188913
0.0045267728
0.0045345885
0.0045423394
0.0045500261
0.0045576496
0.0045652105
0.0045727097
0.0045801479
0.0045875259
0.0045948444
0.004602104
0.0046093055
0.0046164496
0.0046235369
0.0046305681
0.0046375438
0.0046444647
0.0046513313
0.0046581443
0.0046649043
0.0046716119
0.0046782675
0.0046848719
0.0046914255
0.0046979289
0.0047043826
0.0047107872
0.0047171431
0.0047234509
0.004729711
0.004735924
0.0047420903
0.0047482103
0.0047542847
0.0047603137
0.0047662979
0.0047722377
0.0047781335
0.0047839857
0.0047897948
0.0047955612
0.0048012853
0.0048069675
0.0048126082
0.0048182077
0.0048237665
0.0048292849
0.0048347633
0.004840202
0.0048456015
0.004850962
0.004856284
0.0048615677
0.0048668135
0.0048720218
0.0048771928
0.004882327
0.0048874245
0.0048924857
0.004897511
0.0049025007
0.004907455
0.0049123742
0.0049172587
0.0049221087
0.0049269245
0.0049317063
0.0049364544
0.0049411689
0.0049458501
0.0049504972
0.0049551134
0.0049596794
0.0049642589
0.0049684514
0.0049734815
0.0023522101
0.0024611424
0.0025252909
0.0025700456
0.002610189
0.0026459422
0.0026784473
0.0027091016
0.0027386324
0.0027674937
0.0027960284
0.0028244668
0.0028529482
0.0028814863
0.0029100633
0.002938643
0.0029671829
0.0029956354
0.003023951
0.0030520812
0.003079982
0.0031076153
0.0031349485
0.0031619549
0.0031886126
0.0032149042
0.0032408166
0.0032663397
0.0032914667
0.0033161929
0.0033405161
0.0033644355
0.0033879518
0.0034110669
0.0034337826
0.0034561028
0.0034780251
0.0034995558
0.0035206988
0.0035414587
0.0035618406
0.0035818495
0.0036014908
0.0036207699
0.0036396924
0.0036582638
0.0036764899
0.0036943763
0.0037119288
0.0037291527
0.0037460538
0.0037626292
0.0037788832
0.0037948216
0.0038104505
0.003825776
0.0038408044
0.0038555417
0.0038699942
0.0038841679
0.0038980688
0.0039117027
0.0039250753
0.0039381923
0.0039510593
0.0039636816
0.0039760645
0.0039882129
0.0040001319
0.0040118261
0.0040233002
0.0040345588
0.0040456064
0.0040564472
0.0040670855
0.0040775253
0.0040877708
0.0040978257
0.004107694
0.0041173794
0.0041268854
0.0041362157
0.0041453736
0.0041543625
0.0041631857
0.0041718465
0.0041803478
0.0041886928
0.0041968845
0.0042049256
0.0042128191
0.0042205677
0.004228174
0.0042356407
0.0042429704
0.0042501656
0.0042572286
0.0042641619
0.0042709677
0.0042776484
0.0042842062
0.0042906432
0.0042969616
0.0043031634
0.0043092506
0.0043152252
0.0043210891
0.0043268443
0.0043324925
0.0043380356
0.0043434753
0.0043488133
0.0043540514
0.0043591912
0.0043642344
0.0043691824
0.0043740368
0.0043787992
0.0043834711
0.0043880538
0.0043925489
0.0043969577
0.0044012815
0.0044055218
0.0044096799
0.0044137569
0.0044177543
0.0044216732
0.0044255148
0.0044292804
0.004432971
0.0044365879
0.0044401322
0.0044436049
0.0044470072
0.0044503401
0.0044536046
0.0044568018
0.0044599327
0.0044629983
0.0044659995
0.0044689373
0.0044718127
0.0044746264
0.0044773796
0.0044800729
0.0044827074
0.0044852838
0.0044878031
0.004490266
0.0044926733
0.0044950259
0.0044973245
0.00449957
0.004501763
0.0045039043
0.0045059947
0.0045080349
0.0045100256
0.0045119676
0.0045138614
0.0045157078
0.0045175074
0.004519261
0.0045209691
0.0045226325
0.0045242516
0.0045258273
0.00452736
0.0045288503
0.0045302989
0.0045317064
0.0045330733
0.0045344002
0.0045356876
0.0045369362
0.0045381464
0.0045393187
0.0045404538
0.0045415521
0.0045426141
0.0045436404
0.0045446314
0.0045455877
0.0045465096
0.0045473978
0.0045482527
0.0045490747
0.0045498643
0.004550622
0.0045513482
0.0045520436
0.0045527085
0.0045533439
0.0045539506
0.004554532
0.0045550883
0.0045556461
0.0045561585
0.0045566599
0.0023479654
0.0024531426
0.0024770501
0.0024968536
0.0025240309
0.0025527413
0.0025823655
0.0026129678
0.0026442021
0.0026758016
0.0027076071
0.002739492
0.002771336
0.0028030078
0.0028343842
0.0028653703
0.0028958807
0.002925842
0.0029551939
0.0029838876
0.0030118848
0.0030391561
0.0030656803
0.0030914426
0.0031164343
0.0031406509
0.0031640923
0.0031867614
0.0032086642
0.0032298086
0.0032502046
0.0032698638
0.003288799
0.0033070242
0.0033245549
0.0033414069
0.0033576068
0.0033731696
0.0033881126
0.0034024534
0.0034162097
0.0034293991
0.0034420392
0.003454147
0.0034657396
0.0034768335
0.0034874449
0.0034975897
0.0035072832
0.0035165404
0.0035253757
0.0035338043
0.0035418401
0.0035494961
0.0035567846
0.0035637177
0.0035703067
0.003576563
0.0035824971
0.0035881197
0.0035934409
0.0035984705
0.003603218
0.0036076926
0.0036119032
0.0036158586
0.0036195671
0.0036230366
0.003626275
0.0036292897
0.0036320879
0.0036346766
0.0036370625
0.003639252
0.0036412515
0.003643067
0.0036447043
0.0036461691
0.0036474669
0.0036486029
0.0036495823
0.00365041
0.0036510909
0.0036516295
0.0036520304
0.0036522978
0.0036524361
0.0036524492
0.0036523412
0.0036521157
0.0036517766
0.0036513275
0.0036507717
0.0036501127
0.0036493538
0.0036484981
0.0036475486
0.0036465084
0.0036453804
0.0036441673
0.0036428719
0.0036414968
0.0036400446
0.0036385177
0.0036369187
0.0036352497
0.0036335132
0.0036317113
0.0036298462
0.00362792
0.0036259346
0.0036238921
0.0036217944
0.0036196433
0.0036174406
0.0036151882
0.0036128877
0.0036105408
0.003608149
0.0036057141
0.0036032375
0.0036007206
0.003598165
0.003595572
0.0035929431
0.0035902795
0.0035875825
0.0035848535
0.0035820935
0.0035793039
0.0035764858
0.0035736403
0.0035707685
0.0035678715
0.0035649503
0.0035620059
0.0035590394
0.0035560516
0.0035530436
0.0035500162
0.0035469703
0.0035439068
0.0035408265
0.0035377302
0.0035346187
0.0035314929
0.0035283534
0.0035252009
0.0035220362
0.0035188601
0.0035156731
0.0035124759
0.0035092691
0.0035060534
0.0035028294
0.0034995977
0.0034963588
0.0034931133
0.0034898618
0.0034866047
0.0034833426
0.003480076
0.0034768054
0.0034735312
0.0034702538
0.0034669739
0.0034636917
0.0034604077
0.0034571223
0.003453836
0.003450549
0.0034472618
0.0034439747
0.0034406882
0.0034374025
0.0034341179
0.0034308349
0.0034275536
0.0034242745
0.0034209979
0.0034177239
0.0034144529
0.0034111852
0.0034079211
0.0034046607
0.0034014044
0.0033981524
0.0033949049
0.0033916622
0.0033884245
0.0033851922
0.0033819654
0.0033787446
0.0033755303
0.0033723229
0.0033691228
0.0033659323
0.0033627243
0.0033596608
0.0033557306
0.00226397
0.0023427103
0.0023076558
0.0022817217
0.0022700274
0.0022629834
0.0022601785
0.0022616531
0.0022666339
0.0022742985
0.0022839131
0.0022948347
0.00230652
0.0023185577
0.0023306415
0.0023425489
0.002354115
0.0023652236
0.0023757968
0.0023857849
0.0023951588
0.002403904
0.0024120174
0.0024195031
0.002426371
0.0024326349
0.0024383112
0.0024434184
0.0024479762
0.0024520052
0.0024555265
0.0024585616
0.0024611318
0.0024632587
0.0024649639
0.0024662674
0.0024671893
0.0024677497
0.0024679681
0.0024678628
0.0024674513
0.0024667505
0.002465777
0.0024645465
0.0024630742
0.0024613748
0.0024594623
0.00245735
0.0024550506
0.0024525763
0.0024499384
0.0024471483
0.0024442168
0.0024411542
0.00243797
0.002434673
0.0024312714
0.002427773
0.0024241852
0.002420515
0.0024167689
0.0024129532
0.0024090737
0.0024051361
0.0024011455
0.002397107
0.0023930252
0.0023889045
0.002384749
0.0023805626
0.002376349
0.0023721116
0.0023678535
0.0023635777
0.002359287
0.002354984
0.0023506712
0.0023463509
0.0023420251
0.0023376959
0.0023333651
0.0023290344
0.0023247055
0.0023203798
0.0023160587
0.0023117435
0.0023074354
0.0023031355
0.0022988448
0.0022945643
0.0022902948
0.0022860371
0.002281792
0.0022775601
0.002273342
0.0022691384
0.0022649498
0.0022607765
0.0022566191
0.0022524779
0.0022483533
0.0022442455
0.002240155
0.0022360819
0.0022320264
0.0022279888
0.0022239692
0.0022199678
0.0022159847
0.0022120201
0.0022080739
0.0022041463
0.0022002374
0.0021963472
0.0021924758
0.0021886231
0.0021847892
0.0021809741
0.0021771777
0.0021734001
0.0021696412
0.0021659011
0.0021621796
0.0021584768
0.0021547926
0.0021511269
0.0021474796
0.0021438508
0.0021402404
0.0021366483
0.0021330744
0.0021295187
0.002125981
0.0021224614
0.0021189598
0.002115476
0.00211201
0.0021085617
0.002105131
0.0021017179
0.0020983223
0.0020949441
0.0020915832
0.0020882395
0.002084913
0.0020816036
0.0020783112
0.0020750356
0.002071777
0.0020685351
0.0020653098
0.0020621012
0.0020589091
0.0020557334
0.0020525742
0.0020494312
0.0020463044
0.0020431938
0.0020400992
0.0020370206
0.002033958
0.0020309111
0.0020278801
0.0020248648
0.002021865
0.0020188809
0.0020159122
0.0020129589
0.002010021
0.0020070983
0.0020041908
0.0020012985
0.0019984212
0.0019955589
0.0019927115
0.001989879
0.0019870612
0.0019842582
0.0019814698
0.001978696
0.0019759367
0.0019731918
0.0019704613
0.0019677452
0.0019650432
0.0019623555
0.0019596819
0.0019570224
0.0019543769
0.0019517454
0.0019491279
0.0019465244
0.0019439351
0.0019413602
0.0019388
0.0019362527
0.0019337296
0.0019311365
0.0019288425
0.001924749
0.0019562663
0.0018525702
0.0016152525
0.0014257785
0.0012827601
0.0011687497
0.0010809862
0.0010165523
0.00097093011
0.00093978671
0.0009193954
0.00090669992
0.00089931621
0.00089546931
0.00089392474
0.000893851
0.00089467481
0.0008960097
0.00089760291
0.00089929152
0.00090097296
0.00090258496
0.00090409144
0.00090547323
0.00090672178
0.00090783522
0.00090881573
0.00090966784
0.00091039741
0.00091101093
0.00091151516
0.00091191681
0.00091222251
0.00091243858
0.00091257175
0.00091262674
0.00091260619
0.00091251561
0.00091236152
0.00091214836
0.00091187982
0.00091155935
0.00091119015
0.00091077523
0.00091031744
0.00090981945
0.00090928379
0.00090871281
0.00090810873
0.00090747358
0.00090680902
0.00090611679
0.00090539895
0.00090465752
0.00090389419
0.00090311041
0.0009023075
0.00090148666
0.00090064904
0.00089979573
0.00089892781
0.00089804627
0.00089715209
0.00089624617
0.00089532938
0.00089440256
0.00089346653
0.00089252205
0.00089156984
0.00089061059
0.00088964495
0.00088867354
0.00088769692
0.00088671565
0.00088573023
0.00088474114
0.00088374885
0.00088275379
0.00088175635
0.00088075692
0.00087975587
0.00087875352
0.0008777502
0.00087674621
0.00087574183
0.00087473731
0.00087373291
0.00087272886
0.00087172537
0.00087072265
0.00086972088
0.00086872024
0.00086772089
0.00086672299
0.00086572667
0.00086473208
0.00086373932
0.00086274851
0.00086175976
0.00086077317
0.00085978882
0.0008588068
0.00085782717
0.00085685002
0.0008558754
0.00085490338
0.000853934
0.00085296732
0.00085200338
0.00085104222
0.00085008387
0.00084912838
0.00084817576
0.00084722605
0.00084627928
0.00084533545
0.0008443946
0.00084345674
0.00084252188
0.00084159004
0.00084066123
0.00083973546
0.00083881274
0.00083789307
0.00083697647
0.00083606294
0.00083515248
0.00083424509
0.00083334079
0.00083243956
0.00083154143
0.00083064637
0.00082975441
0.00082886553
0.00082797973
0.00082709702
0.0008262174
0.00082534086
0.00082446741
0.00082359704
0.00082272975
0.00082186555
0.00082100442
0.00082014637
0.0008192914
0.0008184395
0.00081759068
0.00081674492
0.00081590224
0.00081506263
0.00081422609
0.00081339262
0.00081256221
0.00081173486
0.00081091058
0.00081008936
0.00080927119
0.00080845609
0.00080764405
0.00080683506
0.00080602912
0.00080522624
0.00080442642
0.00080362964
0.00080283591
0.00080204523
0.0008012576
0.00080047301
0.00079969146
0.00079891295
0.00079813749
0.00079736506
0.00079659566
0.0007958293
0.00079506597
0.00079430567
0.00079354839
0.00079279414
0.0007920429
0.00079129469
0.00079054949
0.00078980731
0.00078906814
0.00078833198
0.00078759883
0.00078686869
0.00078614156
0.00078541745
0.00078469636
0.00078397832
0.00078326337
0.00078255157
0.00078184304
0.00078113785
0.00078043726
0.0007797345
0.00077906339
0.00077824728
0.00077792798
0.00077547751
)
;

boundaryField
{
    exteriorWall
    {
        type            calculated;
        value           nonuniform List<scalar> 
200
(
6.122141e-05
6.122141e-05
6.122141e-05
6.122141e-05
6.122141e-05
6.122141e-05
6.122141e-05
6.122141e-05
6.122141e-05
6.122141e-05
6.122141e-05
6.122141e-05
6.122141e-05
6.122141e-05
6.122141e-05
6.122141e-05
6.122141e-05
6.122141e-05
6.122141e-05
6.122141e-05
6.122141e-05
6.122141e-05
6.122141e-05
6.122141e-05
6.122141e-05
6.122141e-05
6.122141e-05
6.122141e-05
6.122141e-05
6.122141e-05
6.122141e-05
6.122141e-05
6.122141e-05
6.122141e-05
6.122141e-05
6.122141e-05
6.122141e-05
6.122141e-05
6.122141e-05
6.122141e-05
6.122141e-05
6.122141e-05
6.122141e-05
6.122141e-05
6.122141e-05
6.122141e-05
6.122141e-05
6.122141e-05
6.122141e-05
6.122141e-05
6.122141e-05
6.122141e-05
6.122141e-05
6.122141e-05
6.122141e-05
6.122141e-05
6.122141e-05
6.122141e-05
6.122141e-05
6.122141e-05
6.122141e-05
6.122141e-05
6.122141e-05
6.122141e-05
6.122141e-05
6.122141e-05
6.122141e-05
6.122141e-05
6.122141e-05
6.122141e-05
6.122141e-05
6.122141e-05
6.122141e-05
6.122141e-05
6.122141e-05
6.122141e-05
6.122141e-05
6.122141e-05
6.122141e-05
6.122141e-05
6.122141e-05
6.122141e-05
6.122141e-05
6.122141e-05
6.122141e-05
6.122141e-05
6.122141e-05
6.122141e-05
6.122141e-05
6.122141e-05
6.122141e-05
6.122141e-05
6.122141e-05
6.122141e-05
6.122141e-05
6.122141e-05
6.122141e-05
6.122141e-05
6.122141e-05
6.122141e-05
6.122141e-05
6.122141e-05
6.122141e-05
6.122141e-05
6.122141e-05
6.122141e-05
6.122141e-05
6.122141e-05
6.122141e-05
6.122141e-05
6.122141e-05
6.122141e-05
6.122141e-05
6.122141e-05
6.122141e-05
6.122141e-05
6.122141e-05
6.122141e-05
6.122141e-05
6.122141e-05
6.122141e-05
6.122141e-05
6.122141e-05
6.122141e-05
6.122141e-05
6.122141e-05
6.122141e-05
6.122141e-05
6.122141e-05
6.122141e-05
6.122141e-05
6.122141e-05
6.122141e-05
6.122141e-05
6.122141e-05
6.122141e-05
6.122141e-05
6.122141e-05
6.122141e-05
6.122141e-05
6.122141e-05
6.122141e-05
6.122141e-05
6.122141e-05
6.122141e-05
6.122141e-05
6.122141e-05
6.122141e-05
6.122141e-05
6.122141e-05
6.122141e-05
6.122141e-05
6.122141e-05
6.122141e-05
6.122141e-05
6.122141e-05
6.122141e-05
6.122141e-05
6.122141e-05
6.122141e-05
6.122141e-05
6.122141e-05
6.122141e-05
6.122141e-05
6.122141e-05
6.122141e-05
6.122141e-05
6.122141e-05
6.122141e-05
6.122141e-05
6.122141e-05
6.122141e-05
6.122141e-05
6.122141e-05
6.122141e-05
6.122141e-05
6.122141e-05
6.122141e-05
6.122141e-05
6.122141e-05
6.122141e-05
6.122141e-05
6.122141e-05
6.122141e-05
6.122141e-05
6.122141e-05
6.122141e-05
6.122141e-05
6.122141e-05
6.122141e-05
6.122141e-05
6.122141e-05
6.122141e-05
6.122141e-05
6.122141e-05
6.122141e-05
6.122141e-05
6.122141e-05
6.122141e-05
6.122141e-05
)
;
    }
    inlet
    {
        type            calculated;
        value           uniform 2.6258311e-05;
    }
    outlet
    {
        type            calculated;
        value           nonuniform List<scalar> 6(5.8697264e-05 5.8856333e-05 5.9047702e-05 5.9223408e-05 5.9399046e-05 5.9618673e-05);
    }
    walls
    {
        type            calculated;
        value           nonuniform List<scalar> 0();
    }
    frontAndBack
    {
        type            empty;
    }
    frontAndBack_pos
    {
        type            wedge;
    }
    frontAndBack_neg
    {
        type            wedge;
    }
}


// ************************************************************************* //
