/*--------------------------------*- C++ -*----------------------------------*\
  =========                 |
  \\      /  F ield         | OpenFOAM: The Open Source CFD Toolbox
   \\    /   O peration     | Website:  https://openfoam.org
    \\  /    A nd           | Version:  10
     \\/     M anipulation  |
\*---------------------------------------------------------------------------*/
FoamFile
{
    format      ascii;
    class       volScalarField;
    location    "800/FLUID";
    object      Bi;
}
// * * * * * * * * * * * * * * * * * * * * * * * * * * * * * * * * * * * * * //

dimensions      [0 0 0 0 0 0 0];

internalField   nonuniform List<scalar> 
1200
(
0.4369148
0.43365561
0.42981282
0.42654296
0.42389432
0.42185665
0.42042489
0.41954273
0.419138
0.41914255
0.41949459
0.4201397
0.42103113
0.42213064
0.42340613
0.42483648
0.42639844
0.428065
0.42981295
0.43162162
0.43347288
0.43535106
0.43724263
0.43913603
0.4410214
0.44289043
0.44473619
0.44655293
0.44833597
0.45008153
0.45178667
0.45344914
0.45506728
0.45663999
0.45816657
0.45964674
0.4610805
0.46246815
0.46381022
0.4651074
0.46636054
0.4675706
0.46873863
0.46986575
0.47095311
0.47200192
0.4730134
0.47398878
0.4749293
0.47583618
0.47671064
0.47755394
0.47836726
0.47915175
0.4799085
0.48063858
0.48134298
0.4820227
0.48267867
0.48331179
0.48392294
0.48451296
0.48508264
0.4856328
0.48616419
0.48667751
0.48717339
0.48765242
0.48811522
0.48856237
0.48899442
0.48941193
0.4898154
0.49020536
0.49058227
0.49094661
0.49129882
0.49163932
0.49196854
0.49228686
0.49259465
0.49289228
0.4931801
0.49345842
0.49372758
0.49398787
0.49423958
0.49448299
0.49471837
0.49494597
0.49516604
0.49537882
0.49558451
0.49578336
0.49597555
0.4961613
0.49634078
0.49651419
0.49668171
0.4968435
0.49699972
0.49715054
0.49729611
0.49743657
0.49757206
0.49770271
0.49782867
0.49795006
0.49806699
0.49817959
0.49828797
0.49839224
0.4984925
0.49858886
0.49868142
0.49877028
0.49885552
0.49893724
0.49901552
0.49909046
0.49916213
0.4992306
0.49929597
0.4993583
0.49941767
0.49947414
0.49952779
0.49957869
0.49962689
0.49967246
0.49971546
0.49975596
0.499794
0.49982965
0.49986296
0.49989398
0.49992277
0.49994938
0.49997385
0.49999623
0.50001658
0.50003493
0.50005134
0.50006584
0.50007847
0.50008929
0.50009832
0.50010561
0.5001112
0.50011512
0.50011742
0.50011812
0.50011726
0.50011488
0.500111
0.50010567
0.50009891
0.50009076
0.50008124
0.50007039
0.50005823
0.50004479
0.5000301
0.50001419
0.49999708
0.49997881
0.49995938
0.49993884
0.49991721
0.4998945
0.49987074
0.49984596
0.49982018
0.49979341
0.49976569
0.49973702
0.49970744
0.49967696
0.49964561
0.49961339
0.49958033
0.49954646
0.49951177
0.49947631
0.49944008
0.49940309
0.49936537
0.49932694
0.49928781
0.49924799
0.49920751
0.49916639
0.49912466
0.49908233
0.49903952
0.49899613
0.49895301
0.49890726
0.49887191
0.49878414
0.43661722
0.43330963
0.43086576
0.42970112
0.42937712
0.42972242
0.43060436
0.43187882
0.43342976
0.43516908
0.43702862
0.43895663
0.44091489
0.44288589
0.44484392
0.44676222
0.44862538
0.45042669
0.45216274
0.4538326
0.45543698
0.45697752
0.4584565
0.45987649
0.46124018
0.46255029
0.46380947
0.46502026
0.46618508
0.46730619
0.46838573
0.46942569
0.47042793
0.4713942
0.47232612
0.47322523
0.47409305
0.47493094
0.47574017
0.47652189
0.47727719
0.47800712
0.47871266
0.47939477
0.48005435
0.48069226
0.48130933
0.48190633
0.48248402
0.4830431
0.48358429
0.48410835
0.48461576
0.48510702
0.48558262
0.48604307
0.48648888
0.48692054
0.48733854
0.48774337
0.48813548
0.48851533
0.48888334
0.48923993
0.48958549
0.48992045
0.4902452
0.49056011
0.49086554
0.49116181
0.49144924
0.49172811
0.49199872
0.49226131
0.49251616
0.49276349
0.49300356
0.49323657
0.49346275
0.4936823
0.49389541
0.49410229
0.49430311
0.49449805
0.49468727
0.49487096
0.49504925
0.4952223
0.49539026
0.49555328
0.49571148
0.495865
0.49601397
0.4961585
0.49629873
0.49643475
0.49656669
0.49669466
0.49681874
0.49693906
0.49705569
0.49716875
0.49727831
0.49738447
0.49748732
0.49758693
0.49768338
0.49777677
0.49786715
0.49795461
0.49803922
0.49812104
0.49820015
0.4982766
0.49835047
0.49842182
0.4984907
0.49855718
0.49862131
0.49868314
0.49874274
0.49880015
0.49885543
0.49890862
0.49895977
0.49900894
0.49905617
0.49910149
0.49914497
0.49918663
0.49922653
0.4992647
0.49930117
0.499336
0.49936922
0.49940086
0.49943097
0.49945957
0.4994867
0.4995124
0.49953669
0.49955961
0.49958119
0.49960147
0.49962046
0.4996382
0.49965473
0.49967005
0.49968422
0.49969724
0.49970915
0.49971997
0.49972972
0.49973844
0.49974614
0.49975285
0.49975859
0.49976339
0.49976726
0.49977022
0.4997723
0.49977352
0.4997739
0.49977345
0.4997722
0.49977017
0.49976736
0.49976381
0.49975953
0.49975453
0.49974884
0.49974246
0.49973542
0.49972773
0.4997194
0.49971046
0.49970091
0.49969078
0.49968007
0.49966879
0.49965697
0.49964462
0.49963174
0.49961836
0.49960448
0.49959011
0.49957528
0.49955998
0.49954424
0.49952806
0.49951146
0.49949444
0.49947703
0.49945923
0.49944108
0.49942248
0.49940389
0.49938306
0.49936845
0.49931355
0.43772541
0.43654485
0.43855345
0.44189661
0.44548167
0.44908128
0.45253727
0.45574674
0.45867616
0.46132424
0.46370318
0.46583228
0.46773328
0.46942729
0.47093601
0.47228541
0.4734975
0.47459133
0.47558337
0.47648779
0.47731675
0.4780806
0.47878819
0.47944708
0.48006372
0.48064361
0.48119147
0.48171131
0.48220657
0.48268019
0.48313467
0.48357217
0.48399452
0.4844033
0.48479989
0.48518548
0.48556182
0.48592934
0.48628868
0.48664042
0.48698509
0.48732316
0.48765507
0.48798119
0.48830185
0.48861733
0.48892788
0.48923373
0.48953506
0.48983207
0.49012487
0.49041358
0.4906985
0.49097984
0.49125777
0.49153238
0.49180376
0.49207197
0.49233705
0.49259904
0.49285799
0.49311393
0.49336687
0.49361686
0.4938639
0.49410802
0.49434925
0.49458761
0.49482315
0.4950559
0.4952859
0.49551318
0.49573778
0.49595973
0.49617906
0.49639583
0.49661005
0.49682176
0.49703101
0.49723782
0.49744223
0.49764427
0.49784398
0.4980414
0.49823656
0.4984295
0.49862024
0.49880883
0.4989953
0.49917968
0.499362
0.49954231
0.49972063
0.499897
0.50007145
0.50024401
0.50041471
0.5005836
0.50075069
0.50091602
0.50107962
0.50124151
0.50140174
0.50156033
0.50171731
0.5018727
0.50202654
0.50217885
0.50232966
0.502479
0.50262688
0.50277335
0.50291842
0.50306212
0.50320448
0.50334551
0.50348524
0.50362369
0.5037609
0.50389687
0.50403163
0.50416521
0.50429762
0.50442889
0.50455903
0.50468807
0.50481602
0.50494291
0.50506874
0.50519355
0.50531735
0.50544016
0.50556199
0.50568286
0.5058028
0.5059218
0.5060399
0.5061571
0.50627342
0.50638889
0.5065035
0.50661728
0.50673024
0.50684239
0.50695376
0.50706434
0.50717416
0.50728323
0.50739155
0.50749915
0.50760604
0.50771222
0.5078177
0.50792251
0.50802665
0.50813012
0.50823295
0.50833515
0.50843671
0.50853766
0.508638
0.50873774
0.50883689
0.50893547
0.50903347
0.50913091
0.5092278
0.50932415
0.50941996
0.50951524
0.50961
0.50970425
0.509798
0.50989125
0.509984
0.51007628
0.51016808
0.51025941
0.51035028
0.5104407
0.51053067
0.51062019
0.51070928
0.51079793
0.51088617
0.51097398
0.51106138
0.51114837
0.51123496
0.51132116
0.51140696
0.51149236
0.51157738
0.51166201
0.51174622
0.51182992
0.51191302
0.51199423
0.5120726
0.51213482
0.44403404
0.44824581
0.45622219
0.46348606
0.46932952
0.47412107
0.47803197
0.48120349
0.48378127
0.48588525
0.48760907
0.48902671
0.4901962
0.49115587
0.4919502
0.49261463
0.49317687
0.49365895
0.49407855
0.49444994
0.49478468
0.49509219
0.4953801
0.4956546
0.49592075
0.49618263
0.49644351
0.49670604
0.49697231
0.49724396
0.49752226
0.49780817
0.49810237
0.49840534
0.49871734
0.49903841
0.49936758
0.49970523
0.50005133
0.50040572
0.50076813
0.50113826
0.50151572
0.50190015
0.50229114
0.50268828
0.50309117
0.5034994
0.50391257
0.50433029
0.50475215
0.50517765
0.50560642
0.50603814
0.50647254
0.50690934
0.5073483
0.50778918
0.50823173
0.50867573
0.50912095
0.50956719
0.51001425
0.51046192
0.51091003
0.5113584
0.51180685
0.51225524
0.51270342
0.51315127
0.51359865
0.51404547
0.5144916
0.51493696
0.51538145
0.51582499
0.51626749
0.51670889
0.51714911
0.5175881
0.51802579
0.51846213
0.51889706
0.51933055
0.51976254
0.52019301
0.5206219
0.5210492
0.52147486
0.52189887
0.52232119
0.5227418
0.52316068
0.52357782
0.52399319
0.52440678
0.52481858
0.52522857
0.52563675
0.5260431
0.52644762
0.5268503
0.52725113
0.52765011
0.52804723
0.5284425
0.52883591
0.52922746
0.52961714
0.53000497
0.53039093
0.53077503
0.53115727
0.53153765
0.53191618
0.53229286
0.53266769
0.53304068
0.53341182
0.53378113
0.53414861
0.53451426
0.53487809
0.5352401
0.5356003
0.53595869
0.53631529
0.53667009
0.5370231
0.53737433
0.53772379
0.53807148
0.53841741
0.53876158
0.53910401
0.53944469
0.53978364
0.54012086
0.54045636
0.54079015
0.54112223
0.54145262
0.54178131
0.54210832
0.54243365
0.54275732
0.54307932
0.54339967
0.54371837
0.54403543
0.54435086
0.54466466
0.54497685
0.54528743
0.54559641
0.54590379
0.54620958
0.5465138
0.54681644
0.54711752
0.54741704
0.54771501
0.54801144
0.54830634
0.54859971
0.54889156
0.54918189
0.54947072
0.54975806
0.5500439
0.55032826
0.55061115
0.55089256
0.55117252
0.55145102
0.55172808
0.5520037
0.55227788
0.55255064
0.55282199
0.55309192
0.55336045
0.55362758
0.55389333
0.55415769
0.55442068
0.5546823
0.55494256
0.55520147
0.55545902
0.55571523
0.55597009
0.55622362
0.55647579
0.55672661
0.55697603
0.55722389
0.55747093
0.55770722
0.55796697
0.45894244
0.46932052
0.48276708
0.49345475
0.50160864
0.50818437
0.51350399
0.51778429
0.52124029
0.52405236
0.52636566
0.52829618
0.52993491
0.53134677
0.53258547
0.5336938
0.5347051
0.53564489
0.53653256
0.5373829
0.53820726
0.53901436
0.53981089
0.54060204
0.5413918
0.54218322
0.54297861
0.54377969
0.54458772
0.54540356
0.54622778
0.54706067
0.54790232
0.54875266
0.54961143
0.55047831
0.55135257
0.55223383
0.5531217
0.55401575
0.5549155
0.55582044
0.55673001
0.55764365
0.55856079
0.55948085
0.56040329
0.56132756
0.56225312
0.56317946
0.56410609
0.56503246
0.56595804
0.5668824
0.56780515
0.56872592
0.56964441
0.57056029
0.57147329
0.57238314
0.57328956
0.57419232
0.5750912
0.57598596
0.57687642
0.57776239
0.57864367
0.57952013
0.58039161
0.58125799
0.58211914
0.58297497
0.58382538
0.58467029
0.58550963
0.58634334
0.58717136
0.58799365
0.58881017
0.5896209
0.5904258
0.59122486
0.59201807
0.59280543
0.59358692
0.59436257
0.59513237
0.59589633
0.59665449
0.59740684
0.59815343
0.59889427
0.59962939
0.60035883
0.60108262
0.6018008
0.60251341
0.60322048
0.60392205
0.60461818
0.6053089
0.60599427
0.60667432
0.6073491
0.60801867
0.60868307
0.60934234
0.60999655
0.61064574
0.61128996
0.61192925
0.61256368
0.61319329
0.61381813
0.61443825
0.61505371
0.61566454
0.61627081
0.61687255
0.61746983
0.61806269
0.61865117
0.61923532
0.6198152
0.62039085
0.62096231
0.62152963
0.62209287
0.62265205
0.62320723
0.50167003
0.502024
0.50237533
0.50272407
0.50307024
0.50341388
0.503755
0.50409365
0.50442984
0.5047636
0.50509497
0.50542396
0.50575061
0.50607494
0.50639697
0.50671673
0.50703424
0.50734953
0.50766262
0.50797353
0.50828229
0.50858892
0.50889344
0.50919587
0.50949624
0.50979456
0.51009086
0.51038515
0.51067746
0.51096781
0.51125621
0.51154269
0.51182726
0.51210994
0.51239075
0.5126697
0.51294682
0.51322213
0.51349563
0.51376735
0.5140373
0.5143055
0.51457197
0.51483671
0.51509975
0.51536111
0.51562078
0.5158788
0.51613518
0.51638992
0.51664305
0.51689458
0.51714452
0.51739289
0.51763969
0.51788495
0.51812866
0.51837086
0.51861154
0.51885072
0.51908841
0.51932461
0.51955933
0.51979254
0.52002425
0.52025455
0.52048268
0.52071417
0.52092415
0.52123557
0.49233959
0.51826938
0.55231708
0.58327698
0.6103532
0.50875082
0.52230047
0.53340759
0.54218717
0.54892352
0.55398052
0.55773606
0.56053097
0.56264127
0.56427383
0.56557636
0.566655
0.56758393
0.56841374
0.56917868
0.56990178
0.57059843
0.57127886
0.57194987
0.57261594
0.57328003
0.57394404
0.57460918
0.57527617
0.57594539
0.576617
0.57729098
0.57796718
0.57864538
0.57932519
0.58000641
0.58068891
0.58137229
0.58205601
0.58273976
0.5834233
0.58410638
0.58478873
0.58547009
0.5861502
0.58682879
0.58750561
0.58818042
0.58885299
0.58952311
0.59019061
0.59085526
0.59151682
0.59217504
0.59282976
0.59348084
0.59412818
0.5947717
0.59541129
0.59604689
0.5966784
0.59730575
0.59792887
0.5985477
0.59916218
0.59977224
0.60037784
0.60097893
0.60157547
0.60216743
0.60275479
0.60333752
0.6039156
0.60448904
0.60505783
0.60562195
0.60618143
0.60673626
0.60728645
0.60783202
0.60837299
0.60890936
0.60944116
0.60996842
0.61049116
0.6110094
0.61152318
0.61203253
0.61253747
0.61303805
0.6135343
0.61402625
0.61451394
0.61499741
0.6154767
0.61595185
0.6164229
0.61688989
0.61735286
0.61781186
0.61826692
0.61871809
0.61916542
0.61960894
0.6200487
0.62048474
0.6209171
0.62134583
0.62177097
0.62219257
0.62261066
0.62302529
0.62343649
0.62384432
0.62424881
0.62465001
0.62504795
0.62544267
0.62583421
0.62622262
0.62660794
0.62699019
0.62736942
0.62774566
0.62811896
0.62848935
0.62885686
0.62922154
0.6295834
0.6299425
0.63029886
0.63065252
0.63100351
0.63135186
0.63169761
0.63204078
0.6323814
0.63271951
0.63305514
0.63338831
0.63371906
0.63404741
0.63437339
0.63469702
0.63501834
0.63533737
0.63565413
0.63596866
0.63628097
0.63659109
0.63689905
0.63720486
0.63750856
0.63781016
0.63810968
0.63840716
0.63870261
0.63899604
0.63928749
0.63957698
0.63986451
0.64015012
0.64043382
0.64071563
0.64099557
0.64127366
0.64154992
0.64182436
0.642097
0.64236787
0.64263697
0.64290432
0.64316994
0.64343385
0.64369605
0.64395658
0.64421544
0.64447264
0.64472821
0.64498216
0.6452345
0.64548524
0.6457344
0.645982
0.64622804
0.64647254
0.64671551
0.64695697
0.64719691
0.64743536
0.64767231
0.64790776
0.6481417
0.64837412
0.64860476
0.64883505
0.64905772
0.64931007
0.64945292
0.6500394
)
;

boundaryField
{
    exteriorWall
    {
        type            calculated;
        value           uniform 0;
    }
    inlet
    {
        type            calculated;
        value           uniform 0;
    }
    outlet
    {
        type            calculated;
        value           uniform 0;
    }
    walls
    {
        type            calculated;
        value           nonuniform List<scalar> 0();
    }
    frontAndBack
    {
        type            empty;
    }
    frontAndBack_pos
    {
        type            wedge;
    }
    frontAndBack_neg
    {
        type            wedge;
    }
}


// ************************************************************************* //
