/*--------------------------------*- C++ -*----------------------------------*\
  =========                 |
  \\      /  F ield         | OpenFOAM: The Open Source CFD Toolbox
   \\    /   O peration     | Website:  https://openfoam.org
    \\  /    A nd           | Version:  10
     \\/     M anipulation  |
\*---------------------------------------------------------------------------*/
FoamFile
{
    format      ascii;
    class       volScalarField;
    location    "800/FLUID";
    object      kappaEff;
}
// * * * * * * * * * * * * * * * * * * * * * * * * * * * * * * * * * * * * * //

dimensions      [1 1 -3 -1 0 0 0];

internalField   nonuniform List<scalar> 
1200
(
1.9656656
2.0246522
2.0998393
2.1718724
2.2390786
2.3005852
2.3553689
2.4035253
2.445672
2.4825369
2.5148704
2.5433845
2.5687171
2.5914089
2.6119151
2.6306183
2.6478609
2.6639245
2.6790347
2.693389
2.7071544
2.7204686
2.733445
2.7461754
2.7587339
2.7711792
2.7835571
2.7959026
2.8082422
2.8205945
2.8329725
2.8453842
2.8578336
2.8703217
2.882847
2.8954064
2.9079958
2.9206096
2.9332415
2.9458846
2.9585319
2.9711763
2.9838111
2.9964293
3.0090245
3.0215904
3.0341211
3.0466109
3.0590545
3.0714469
3.0837835
3.0960599
3.1082721
3.1204168
3.1324906
3.144491
3.1564153
3.1682614
3.1800275
3.191712
3.2033133
3.2148305
3.2262627
3.2376091
3.2488723
3.2600523
3.2711486
3.2821611
3.2930896
3.3039341
3.3146947
3.3253714
3.3359643
3.3464737
3.3568999
3.3672432
3.3775039
3.3876826
3.3977797
3.4077958
3.4177315
3.4275874
3.4373642
3.4470625
3.4566832
3.4662269
3.4756945
3.4850868
3.4944045
3.5036485
3.5128197
3.5219188
3.5309468
3.5399046
3.5487929
3.5576128
3.5663649
3.5750503
3.5836698
3.5922243
3.6007146
3.6091416
3.6175061
3.6258091
3.6340512
3.6422334
3.6503565
3.6584213
3.6664286
3.6743791
3.6822738
3.6901132
3.6978983
3.7056297
3.7133082
3.7209345
3.7285093
3.7360334
3.7435073
3.7509318
3.7583076
3.7656353
3.7729155
3.780149
3.7873362
3.7944778
3.8015744
3.8086266
3.815635
3.8226001
3.8295225
3.8364027
3.8432413
3.8500387
3.8567955
3.8635122
3.8701893
3.8768272
3.8834265
3.8899875
3.8965108
3.9029968
3.9094459
3.9158586
3.9222353
3.9285763
3.9348821
3.9411532
3.9473898
3.9535923
3.9597612
3.9658968
3.9719994
3.9780694
3.9841072
3.9901131
3.9960873
4.0020304
4.0079425
4.013824
4.0196751
4.0254963
4.0312878
4.0370498
4.0427827
4.0484868
4.0541623
4.0598095
4.0654286
4.07102
4.0765839
4.0821205
4.0876301
4.0931129
4.0985692
4.1039992
4.1094032
4.1147813
4.1201339
4.125461
4.130763
4.13604
4.1412923
4.1465201
4.1517235
4.1569028
4.1620582
4.1671897
4.1722977
4.1773822
4.1824433
4.1874811
4.1924952
4.1974855
4.2024495
4.2073895
4.2122771
4.2171856
4.2216269
4.2271216
1.9791627
2.0550711
2.1289961
2.1907705
2.2449689
2.291985
2.3321832
2.3667797
2.3969479
2.4236717
2.4477868
2.4699686
2.4907573
2.5105973
2.5298408
2.5486976
2.5672963
2.5857314
2.6040651
2.6223301
2.640541
2.6587009
2.6768055
2.6948466
2.7128135
2.730695
2.7484797
2.7661567
2.7837161
2.801149
2.8184473
2.8356042
2.8526138
2.8694711
2.8861718
2.9027128
2.919091
2.9353042
2.9513506
2.9672293
2.9829399
2.9984822
3.0138564
3.0290628
3.0441019
3.0589747
3.0736819
3.0882248
3.1026046
3.1168231
3.130882
3.1447891
3.1585467
3.1721563
3.1856193
3.1989372
3.2121115
3.2251438
3.2380355
3.2507879
3.2634025
3.2758807
3.2882239
3.3004333
3.3125085
3.3244507
3.3362613
3.347942
3.3594941
3.3709195
3.3822198
3.3933966
3.4044517
3.4153868
3.4262036
3.4369039
3.4474895
3.4579619
3.468323
3.4785744
3.4887177
3.4987547
3.5086869
3.518516
3.5282435
3.537871
3.5474001
3.5568323
3.5661691
3.5754118
3.5845621
3.5936213
3.6025908
3.611472
3.6202663
3.6289749
3.6375992
3.6461405
3.6545999
3.6629788
3.6712784
3.6794997
3.6876441
3.6957126
3.7037064
3.7116265
3.719474
3.7272499
3.7349554
3.7425914
3.7501589
3.7576588
3.7650922
3.7724598
3.7797628
3.7870019
3.7941779
3.8012919
3.8083446
3.8153367
3.8222692
3.8291429
3.8359584
3.8427165
3.849418
3.8560637
3.8626541
3.86919
3.8756721
3.8821011
3.8884776
3.8948022
3.9010756
3.9072984
3.9134711
3.9195945
3.925669
3.9316952
3.9376737
3.9436051
3.9494898
3.9553284
3.9611214
3.9668693
3.9725726
3.9782319
3.9838475
3.9894199
3.9949497
4.0004372
4.0058829
4.0112872
4.0166506
4.0219735
4.0272563
4.0324994
4.0377032
4.0428682
4.0479946
4.0530828
4.0581334
4.0631465
4.0681226
4.073062
4.0779651
4.0828322
4.0876637
4.0924599
4.0972211
4.1019477
4.1066399
4.1112981
4.1159226
4.1205137
4.1250718
4.129597
4.1340897
4.1385501
4.1429787
4.1473755
4.151741
4.1560754
4.160379
4.1646519
4.1688946
4.1731072
4.17729
4.1814432
4.1855671
4.1896619
4.1937279
4.1977652
4.2017739
4.2057543
4.2097056
4.2136308
4.2175132
4.2214072
4.224972
4.2292492
2.0001553
2.0927889
2.1473431
2.185407
2.2195505
2.2499607
2.2776088
2.3036827
2.3288007
2.353349
2.3776191
2.401807
2.426031
2.4503029
2.4746077
2.4989143
2.5231869
2.547385
2.5714665
2.5953901
2.6191185
2.6426192
2.6658647
2.6888321
2.7115028
2.7338621
2.7558989
2.7776045
2.7989731
2.8200009
2.8406859
2.8610274
2.881026
2.9006834
2.9200011
2.9389824
2.9576252
2.975935
2.9939151
3.0115693
3.0289019
3.0459174
3.0626202
3.079015
3.0951064
3.1108993
3.1263984
3.1416086
3.1565349
3.1711817
3.1855539
3.1996491
3.213471
3.2270245
3.2403147
3.2533469
3.2661264
3.2786584
3.2909481
3.3030007
3.3148213
3.3264149
3.3377862
3.3489401
3.3598814
3.3706147
3.3811443
3.3914745
3.4016095
3.4115534
3.4213102
3.4308837
3.4402776
3.4494958
3.4585417
3.4674189
3.4761307
3.4846806
3.4930717
3.5013072
3.5093902
3.5173237
3.5251107
3.532754
3.5402564
3.5476206
3.5548492
3.5619449
3.5689101
3.5757474
3.5824592
3.5890476
3.5955152
3.601864
3.6080963
3.6142141
3.6202196
3.6261148
3.6319016
3.6375821
3.6431579
3.6486311
3.6540034
3.6592765
3.6644522
3.6695322
3.6745181
3.6794114
3.6842138
3.6889269
3.693552
3.6980907
3.7025444
3.7069145
3.7112023
3.7154093
3.7195368
3.723586
3.7275582
3.7314546
3.7352765
3.739025
3.7427013
3.7463065
3.7498418
3.7533082
3.7567069
3.7600388
3.763305
3.7665066
3.7696444
3.7727196
3.775733
3.7786855
3.7815782
3.7844119
3.7871874
3.7899057
3.7925676
3.795174
3.7977256
3.8002233
3.8026679
3.8050602
3.8074009
3.8096908
3.8119306
3.814121
3.8162629
3.8183568
3.8204034
3.8224036
3.8243578
3.8262668
3.8281312
3.8299518
3.8317289
3.8334635
3.8351559
3.8368068
3.8384169
3.8399866
3.8415166
3.8430073
3.8444595
3.8458736
3.8472501
3.8485896
3.8498926
3.8511596
3.8523911
3.8535876
3.8547496
3.8558776
3.856972
3.8580334
3.8590622
3.8600588
3.8610237
3.8619573
3.8628601
3.8637325
3.8645749
3.8653878
3.8661715
3.8669265
3.8676532
3.8683519
3.869023
3.8696671
3.8702844
3.8708754
3.8714406
3.8719807
3.8724963
3.8729904
3.8734632
3.8739373
3.8743728
3.8747989
1.996553
2.086001
2.106343
2.1231943
2.1463144
2.1707368
2.1959352
2.2219641
2.2485297
2.2754053
2.3024554
2.3295726
2.3566546
2.38359
2.4102738
2.4366255
2.4625725
2.4880524
2.5130139
2.5374157
2.561225
2.5844169
2.6069734
2.628882
2.6501351
2.6707291
2.6906638
2.7099417
2.7285678
2.746549
2.7638938
2.7806119
2.7967143
2.8122128
2.8271208
2.8414515
2.8552278
2.8684621
2.8811693
2.8933645
2.9050626
2.9162785
2.9270272
2.9373234
2.9471813
2.9566152
2.9656387
2.9742654
2.9825083
2.9903801
2.9978932
3.0050604
3.0118935
3.0184036
3.0246013
3.0304966
3.0360994
3.0414191
3.0464649
3.0512458
3.0557703
3.0600469
3.0640836
3.0678882
3.0714683
3.0748314
3.0779844
3.0809343
3.0836876
3.0862507
3.0886297
3.0908305
3.0928588
3.0947202
3.0964199
3.0979631
3.0993549
3.1006
3.101703
3.1026684
3.1035007
3.104204
3.1047824
3.1052399
3.1055802
3.105807
3.105924
3.1059346
3.1058421
3.1056499
3.105361
3.1049784
3.1045053
3.1039443
3.1032984
3.1025701
3.1017622
3.1008771
3.0999173
3.0988852
3.097783
3.0966132
3.0953777
3.0940788
3.0927185
3.0912988
3.0898216
3.0882888
3.0867022
3.0850637
3.0833749
3.0816375
3.0798532
3.0780235
3.07615
3.0742341
3.0722773
3.0702811
3.0682468
3.0661758
3.0640693
3.0619286
3.0597549
3.0575495
3.0553135
3.0530481
3.0507542
3.0484331
3.0460858
3.0437132
3.0413163
3.0388962
3.0364537
3.0339898
3.0315054
3.0290012
3.0264782
3.0239371
3.0213789
3.0188041
3.0162136
3.0136082
3.0109884
3.0083551
3.0057089
3.0030504
3.0003804
2.9976993
2.9950079
2.9923067
2.9895962
2.9868771
2.9841499
2.9814151
2.9786733
2.9759248
2.9731703
2.9704102
2.9676449
2.9648749
2.9621007
2.9593226
2.9565411
2.9537566
2.9509694
2.94818
2.9453887
2.9425959
2.9398019
2.937007
2.9342117
2.9314161
2.9286207
2.9258257
2.9230314
2.9202381
2.9174461
2.9146557
2.9118671
2.9090805
2.9062962
2.9035145
2.9007356
2.8979597
2.895187
2.8924177
2.8896521
2.8868904
2.8841328
2.8813794
2.8786306
2.8758865
2.8731475
2.870414
2.8676863
2.8649649
2.8622517
2.8595235
2.8569183
2.8535761
1.9251413
1.9921158
1.9623216
1.9402791
1.9303428
1.9243589
1.9219785
1.9232362
1.9274747
1.9339949
1.9421729
1.9514621
1.9614004
1.9716382
1.981915
1.9920417
2.001878
2.0113252
2.020317
2.0288112
2.036783
2.0442202
2.05112
2.057486
2.0633266
2.0686534
2.0734806
2.0778238
2.0816998
2.0851261
2.0881206
2.0907016
2.0928874
2.094696
2.0961461
2.0972544
2.0980383
2.0985148
2.0987004
2.0986108
2.0982607
2.0976646
2.0968366
2.09579
2.0945378
2.0930925
2.0914659
2.0896694
2.0877138
2.0856094
2.083366
2.080993
2.0784999
2.0758952
2.0731872
2.0703831
2.0674901
2.0645149
2.0614636
2.0583422
2.0551563
2.0519111
2.0486118
2.045263
2.0418691
2.0384345
2.0349631
2.0314586
2.0279245
2.0243642
2.0207807
2.0171769
2.0135555
2.0099191
2.0062701
2.0026106
1.9989428
1.9952685
1.9915896
1.9879078
1.9842246
1.9805416
1.97686
1.9731812
1.9695063
1.9658364
1.9621726
1.9585157
1.9548667
1.9512263
1.9475953
1.9439744
1.9403641
1.9367651
1.9331779
1.9296029
1.9260407
1.9224915
1.9189559
1.915434
1.9119263
1.9084329
1.9049541
1.9014901
1.8980412
1.8946074
1.891189
1.8877861
1.8843987
1.881027
1.877671
1.8743308
1.8710066
1.8676982
1.8644058
1.8611293
1.8578688
1.8546243
1.8513957
1.8481831
1.8449865
1.8418057
1.8386409
1.8354919
1.8323587
1.8292413
1.8261396
1.8230535
1.8199831
1.8169283
1.813889
1.8108651
1.8078566
1.8048634
1.8018855
1.7989228
1.7959752
1.7930427
1.7901252
1.7872226
1.7843349
1.781462
1.7786039
1.7757603
1.7729314
1.770117
1.7673171
1.7645315
1.7617603
1.7590033
1.7562605
1.7535319
1.7508173
1.7481166
1.7454299
1.7427571
1.7400981
1.7374527
1.7348211
1.732203
1.7295985
1.7270075
1.7244299
1.7218656
1.7193146
1.7167768
1.7142522
1.7117408
1.7092423
1.7067569
1.7042843
1.7018247
1.6993778
1.6969437
1.6945223
1.6921135
1.6897172
1.6873335
1.6849623
1.6826034
1.6802569
1.6779227
1.6756007
1.6732908
1.6709931
1.6687075
1.6664339
1.6641722
1.6619225
1.6596847
1.6574588
1.6552448
1.6530428
1.6508531
1.648676
1.6465097
1.6443641
1.6421589
1.6402082
1.6367272
1.6635037
1.5753429
1.3735482
1.2124325
1.0908183
0.99386982
0.91923988
0.86444817
0.8256531
0.79917013
0.78183031
0.77103472
0.76475605
0.76148494
0.76017163
0.76010906
0.76080971
0.76194495
0.76329985
0.76473584
0.76616574
0.76753656
0.76881766
0.7699927
0.77105443
0.77200126
0.77283504
0.77355962
0.77417999
0.77470168
0.77513041
0.7754719
0.7757318
0.77591548
0.77602865
0.77607533
0.77605777
0.77598066
0.77584954
0.77566818
0.77543972
0.7751671
0.77485303
0.77450009
0.77411068
0.77368709
0.77323146
0.77274579
0.77223198
0.77169174
0.77112649
0.7705377
0.76992714
0.76929651
0.76864726
0.76798062
0.76729771
0.76659955
0.76588712
0.76516136
0.76442316
0.76367338
0.76291285
0.76214234
0.76136259
0.76057431
0.75977819
0.75897488
0.75816501
0.75734915
0.75652786
0.75570166
0.75487103
0.75403644
0.75319833
0.7523571
0.75151315
0.75066684
0.74981851
0.74896849
0.74811709
0.74726459
0.74641126
0.74555737
0.74470314
0.7438488
0.74299456
0.74214062
0.74128715
0.74043434
0.73958235
0.73873131
0.73788137
0.73703266
0.73618531
0.73533941
0.73449509
0.73365242
0.73281151
0.73197242
0.73113525
0.73030006
0.72946691
0.72863586
0.72780697
0.72698029
0.72615585
0.72533372
0.72451391
0.72369647
0.72288142
0.7220688
0.72125863
0.72045093
0.71964573
0.71884304
0.71804288
0.71724526
0.7164502
0.7156577
0.71486778
0.71408045
0.71329571
0.71251358
0.71173405
0.71095713
0.71018282
0.70941113
0.70864206
0.70787562
0.70711179
0.7063506
0.70559202
0.70483608
0.70408275
0.70333206
0.70258399
0.70183854
0.70109572
0.70035552
0.69961794
0.69888298
0.69815064
0.69742092
0.69669382
0.69596934
0.69524746
0.69452821
0.69381156
0.69309753
0.6923861
0.69167729
0.69097108
0.69026748
0.68956648
0.68886809
0.6881723
0.68747912
0.68678853
0.68610055
0.68541516
0.68473237
0.68405218
0.68337458
0.68269957
0.68202716
0.68135734
0.68069011
0.68002546
0.67936341
0.67870393
0.67804705
0.67739274
0.67674101
0.67609186
0.67544529
0.67480129
0.67415986
0.673521
0.67288471
0.67225098
0.67161982
0.67099122
0.67036518
0.6697417
0.66912079
0.66850243
0.66788663
0.66727342
0.66666279
0.66605478
0.66544947
0.66484693
0.66424722
0.66365145
0.66305381
0.6624831
0.66178908
0.66151753
0.65943373
)
;

boundaryField
{
    exteriorWall
    {
        type            calculated;
        value           nonuniform List<scalar> 
200
(
0.25768328
0.25768328
0.25768328
0.25768328
0.25768328
0.25768328
0.25768328
0.25768328
0.25768328
0.25768328
0.25768328
0.25768328
0.25768328
0.25768328
0.25768328
0.25768328
0.25768328
0.25768328
0.25768328
0.25768328
0.25768328
0.25768328
0.25768328
0.25768328
0.25768328
0.25768328
0.25768328
0.25768328
0.25768328
0.25768328
0.25768328
0.25768328
0.25768328
0.25768328
0.25768328
0.25768328
0.25768328
0.25768328
0.25768328
0.25768328
0.25768328
0.25768328
0.25768328
0.25768328
0.25768328
0.25768328
0.25768328
0.25768328
0.25768328
0.25768328
0.25768328
0.25768328
0.25768328
0.25768328
0.25768328
0.25768328
0.25768328
0.25768328
0.25768328
0.25768328
0.25768328
0.25768328
0.25768328
0.25768328
0.25768328
0.25768328
0.25768328
0.25768328
0.25768328
0.25768328
0.25768328
0.25768328
0.25768328
0.25768328
0.25768328
0.25768328
0.25768328
0.25768328
0.25768328
0.25768328
0.25768328
0.25768328
0.25768328
0.25768328
0.25768328
0.25768328
0.25768328
0.25768328
0.25768328
0.25768328
0.25768328
0.25768328
0.25768328
0.25768328
0.25768328
0.25768328
0.25768328
0.25768328
0.25768328
0.25768328
0.25768328
0.25768328
0.25768328
0.25768328
0.25768328
0.25768328
0.25768328
0.25768328
0.25768328
0.25768328
0.25768328
0.25768328
0.25768328
0.25768328
0.25768328
0.25768328
0.25768328
0.25768328
0.25768328
0.25768328
0.25768328
0.25768328
0.25768328
0.25768328
0.25768328
0.25768328
0.25768328
0.25768328
0.25768328
0.25768328
0.25768328
0.25768328
0.25768328
0.25768328
0.25768328
0.25768328
0.25768328
0.25768328
0.25768328
0.25768328
0.25768328
0.25768328
0.25768328
0.25768328
0.25768328
0.25768328
0.25768328
0.25768328
0.25768328
0.25768328
0.25768328
0.25768328
0.25768328
0.25768328
0.25768328
0.25768328
0.25768328
0.25768328
0.25768328
0.25768328
0.25768328
0.25768328
0.25768328
0.25768328
0.25768328
0.25768328
0.25768328
0.25768328
0.25768328
0.25768328
0.25768328
0.25768328
0.25768328
0.25768328
0.25768328
0.25768328
0.25768328
0.25768328
0.25768328
0.25768328
0.25768328
0.25768328
0.25768328
0.25768328
0.25768328
0.25768328
0.25768328
0.25768328
0.25768328
0.25768328
0.25768328
0.25768328
0.25768328
0.25768328
0.25768328
0.25768328
0.25768328
0.25768328
0.25768328
0.25768328
)
;
    }
    inlet
    {
        type            calculated;
        value           nonuniform List<scalar> 6(1.9451998 1.9452145 1.9452419 1.9452703 1.9452911 1.9453048);
    }
    outlet
    {
        type            calculated;
        value           nonuniform List<scalar> 6(4.2271149 4.229243 3.8747944 2.8535731 1.6367255 0.65943323);
    }
    walls
    {
        type            calculated;
        value           nonuniform List<scalar> 0();
    }
    frontAndBack
    {
        type            empty;
    }
    frontAndBack_pos
    {
        type            wedge;
    }
    frontAndBack_neg
    {
        type            wedge;
    }
}


// ************************************************************************* //
