/*--------------------------------*- C++ -*----------------------------------*\
  =========                 |
  \\      /  F ield         | OpenFOAM: The Open Source CFD Toolbox
   \\    /   O peration     | Website:  https://openfoam.org
    \\  /    A nd           | Version:  10
     \\/     M anipulation  |
\*---------------------------------------------------------------------------*/
FoamFile
{
    format      ascii;
    class       volScalarField;
    location    "800/FLUID";
    object      overallU;
}
// * * * * * * * * * * * * * * * * * * * * * * * * * * * * * * * * * * * * * //

dimensions      [1 0 -3 -1 0 0 0];

internalField   nonuniform List<scalar> 
1200
(
176.99694
181.2518
186.6843
191.93746
196.90752
201.54191
205.77429
209.61286
213.09924
216.28089
219.20565
221.91807
224.45737
226.8565
229.14271
231.34086
233.47127
235.54735
237.57908
239.57499
241.54203
243.48564
245.41001
247.31832
249.21292
251.09546
252.96705
254.82834
256.67965
258.52103
260.35231
262.17318
263.98322
265.78196
267.56885
269.34337
271.10501
272.85327
274.58765
276.30765
278.01286
279.70288
281.37737
283.03602
284.67858
286.30483
287.91458
289.50769
291.08406
292.6436
294.18626
295.71205
297.22098
298.71309
300.18845
301.64713
303.08923
304.51485
305.92414
307.31723
308.69428
310.05545
311.40093
312.73093
314.04594
315.34617
316.63181
317.90303
319.16003
320.40298
321.63208
322.84751
324.04948
325.23817
326.41377
327.57648
328.72648
329.86396
330.98913
332.10215
333.20323
334.29254
335.37028
336.43662
337.49175
338.53584
339.56908
340.59163
341.60367
342.60538
343.59691
344.57844
345.55012
346.51213
347.46462
348.40773
349.34164
350.26648
351.18241
352.08958
352.98811
353.87817
354.75988
355.63337
356.49879
357.35626
358.20591
359.04786
359.88225
360.70918
361.52878
362.34116
363.14643
363.94472
364.73612
365.52074
366.29869
367.07007
367.83498
368.59352
369.34578
370.09186
370.83186
371.56585
372.29393
373.01619
373.73272
374.44358
375.14888
375.84867
376.54305
377.2321
377.91587
378.59446
379.26792
379.93634
380.59978
381.2583
381.91197
382.56087
383.20504
383.84456
384.47949
385.10987
385.73578
386.35728
386.9744
387.58722
388.19579
388.80015
389.40037
389.99649
390.58856
391.17663
391.76075
392.34096
392.91732
393.48987
394.05865
394.6237
395.18508
395.74282
396.29696
396.84754
397.39461
397.9382
398.47835
399.0151
399.54849
400.07855
400.60532
401.12883
401.64912
402.16623
402.68018
403.19101
403.69875
404.20344
404.7051
405.20376
405.69946
406.19223
406.68209
407.16908
407.65322
408.13453
408.61305
409.08881
409.56182
410.03211
410.4997
410.96459
411.42679
411.88627
412.34287
412.79675
413.24564
413.69499
414.10498
414.58691
178.11028
183.83834
189.59075
194.64588
199.3003
203.55109
207.3963
210.89808
214.12047
217.11868
219.9411
222.62763
225.21122
227.72417
230.18776
232.6102
234.99673
237.35285
239.68243
241.98766
244.26972
246.52912
248.76596
250.98011
253.17126
255.33909
257.48323
259.60336
261.69918
263.77046
265.817
267.83869
269.83543
271.80722
273.75405
275.67602
277.57324
279.44583
281.29394
283.11776
284.91751
286.69343
288.44578
290.17482
291.88082
293.56407
295.22486
296.86351
298.48032
300.07563
301.6498
303.20377
304.73789
306.25239
307.74754
309.22359
310.68084
312.11955
313.53999
314.94243
316.32715
317.69439
319.04442
320.37748
321.69364
322.99314
324.27625
325.54323
326.79434
328.02983
329.24996
330.45499
331.64515
332.82071
333.98191
335.12898
336.26217
337.3817
338.48782
339.58074
340.6607
341.7279
342.78257
343.82491
344.85514
345.87345
346.88006
347.87514
348.85891
349.83154
350.79322
351.74413
352.68446
353.61437
354.53403
355.44362
356.34329
357.23322
358.11354
358.98443
359.84603
360.69848
361.54194
362.37654
363.20243
364.01973
364.82859
365.62913
366.42148
367.20577
367.98211
368.75063
369.51144
370.26466
371.0104
371.74877
372.47988
373.20383
373.92073
374.63068
375.33377
376.0301
376.71978
377.40288
378.07951
378.74975
379.41368
380.0714
380.72299
381.36853
382.0081
382.64177
383.26964
383.89176
384.50822
385.11909
385.72445
386.32435
386.91887
387.50808
388.09204
388.67081
389.24447
389.81308
390.37668
390.93535
391.48915
392.03813
392.58234
393.12185
393.65671
394.18697
394.71269
395.23391
395.7507
396.26309
396.77114
397.2749
397.77441
398.26973
398.76089
399.24794
399.73094
400.20991
400.68491
401.15597
401.62314
402.08647
402.54598
403.00172
403.45374
403.90206
404.34672
404.78777
405.22524
405.65916
406.08958
406.51653
406.94003
407.36013
407.77687
408.19026
408.60036
409.00718
409.41076
409.81113
410.20833
410.60237
410.9933
411.38114
411.76592
412.14766
412.52638
412.90212
413.27481
413.64469
414.01041
414.37594
414.7131
415.09622
180.31444
188.20192
193.70577
198.19974
202.45166
206.39893
210.0712
213.53733
216.83886
220.00789
223.07305
226.05705
228.97662
231.83858
234.64761
237.40862
240.12485
242.79823
245.42977
248.01991
250.5688
253.07655
255.54327
257.96911
260.3543
262.69915
265.00405
267.26943
269.4958
271.68369
273.8337
275.94643
278.02248
280.0625
282.06703
284.03677
285.97209
287.8736
289.74177
291.57712
293.3802
295.15154
296.89168
298.60114
300.28045
301.93013
303.55068
305.1426
306.7064
308.24253
309.75146
311.23296
312.68747
314.11551
315.5176
316.89426
318.24597
319.57325
320.87657
322.15641
323.41325
324.64754
325.85973
327.05028
328.2196
329.36812
330.49626
331.60441
332.69296
333.76231
334.81282
335.84486
336.85879
337.85495
338.8337
339.79536
340.74025
341.6687
342.58103
343.47752
344.35849
345.22421
346.07498
346.91108
347.73276
348.54031
349.33397
350.11401
350.88066
351.63416
352.37477
353.1027
353.81818
354.52144
355.21268
355.89213
356.55998
357.21644
357.8617
358.49596
359.11941
359.73223
360.3346
360.9267
361.5087
362.08078
362.64309
363.1958
363.73907
364.27305
364.7979
365.31376
365.82079
366.31912
366.8089
367.29025
367.76333
368.22825
368.68515
369.13415
369.57538
370.00896
370.43501
370.85365
371.26498
371.66913
372.06621
372.45632
372.83956
373.21605
373.58588
373.94916
374.30598
374.65645
375.00065
375.33867
375.67062
375.99658
376.31664
376.63089
376.9394
377.24227
377.53958
377.83141
378.11783
378.39893
378.67478
378.94546
379.21105
379.47161
379.72721
379.97794
380.22385
380.46502
380.70151
380.93339
381.16072
381.38357
381.60201
381.81608
382.02586
382.23141
382.43278
382.63003
382.82322
383.01241
383.19764
383.37899
383.55649
383.73021
383.90019
384.06648
384.22915
384.38823
384.54378
384.69585
384.84447
384.98971
385.13161
385.2702
385.40555
385.53769
385.66666
385.79251
385.91528
386.03502
386.15176
386.26555
386.37643
386.48443
386.58961
386.692
386.79165
386.88862
386.98298
387.07496
387.16453
387.25325
387.33671
387.4109
181.88788
191.25757
195.5877
199.39259
203.358
207.14204
210.7464
214.21711
217.56838
220.81292
223.96434
227.03318
230.02597
232.94232
235.78496
238.55648
241.25798
243.88997
246.45282
248.94688
251.37257
253.73047
256.02126
258.24577
260.40496
262.49986
264.53158
266.5013
268.41026
270.25971
272.05095
273.78527
275.46399
277.08846
278.66003
280.18002
281.65025
283.07207
284.44688
285.77606
287.06094
288.30282
289.50297
290.66264
291.78302
292.8653
293.91061
294.92006
295.89472
296.83563
297.74379
298.62021
299.46584
300.28159
301.06835
301.82695
302.5582
303.26289
303.94178
304.59562
305.22511
305.83096
306.41383
306.97438
307.51325
308.03105
308.52837
309.0058
309.46389
309.90318
310.3242
310.72746
311.11344
311.48263
311.83549
312.17247
312.49401
312.80052
313.09242
313.3701
313.63396
313.88437
314.1217
314.34629
314.5585
314.75866
314.94709
315.12411
315.29003
315.44515
315.58975
315.72412
315.84853
315.96326
316.06856
316.16468
316.25187
316.33037
316.40041
316.46223
316.51603
316.56204
316.60046
316.63151
316.65537
316.67224
316.68231
316.68576
316.68278
316.67353
316.65819
316.63692
316.60988
316.57723
316.53913
316.49571
316.44714
316.39355
316.33508
316.27186
316.20403
316.13171
316.05504
315.97412
315.88909
315.80006
315.70713
315.61044
315.51007
315.40613
315.29874
315.18799
315.07397
314.95679
314.83653
314.71329
314.58716
314.45822
314.32656
314.19226
314.0554
313.91606
313.77432
313.63025
313.48393
313.33542
313.18481
313.03214
312.8775
312.72095
312.56255
312.40236
312.24044
312.07686
311.91167
311.74492
311.57667
311.40698
311.2359
311.06348
310.88976
310.7148
310.53865
310.36135
310.18295
310.00348
309.82301
309.64156
309.45917
309.2759
309.09177
308.90683
308.72111
308.53465
308.34749
308.15966
307.97119
307.78212
307.59247
307.40229
307.2116
307.02043
306.82882
306.63678
306.44435
306.25155
306.05842
305.86497
305.67124
305.47725
305.28303
305.08862
304.89403
304.69932
304.50453
304.30969
304.11493
303.91812
303.73012
303.47309
179.71289
188.90833
189.90265
190.72258
191.95092
193.10812
194.27003
195.51308
196.83753
198.22534
199.65377
201.09858
202.53667
203.94913
205.32304
206.64989
207.92368
209.14068
210.29893
211.39775
212.43736
213.41865
214.34293
215.21178
216.02698
216.79042
217.50401
218.1697
218.78943
219.36512
219.89865
220.39186
220.84655
221.26447
221.64735
221.99675
222.31417
222.60117
222.85928
223.0899
223.29437
223.47399
223.62997
223.76351
223.87574
223.96774
224.04055
224.09516
224.13252
224.15353
224.15904
224.14986
224.12682
224.09069
224.04218
223.98198
223.91072
223.82901
223.73743
223.63652
223.5268
223.40876
223.28289
223.14961
223.00935
222.86253
222.70952
222.55069
222.38638
222.21692
222.04262
221.86378
221.68067
221.49356
221.3027
221.10833
220.91066
220.70991
220.50629
220.29997
220.09115
219.87999
219.66666
219.45129
219.23405
219.01506
218.79445
218.57235
218.34886
218.12411
217.89818
217.67118
217.44321
217.21433
216.98465
216.75423
216.52315
216.29147
216.05927
215.8266
215.59353
215.3601
215.12637
214.89239
214.65821
214.42386
214.18939
213.95485
213.72026
213.48567
213.2511
213.0166
212.78218
212.54787
212.31372
212.07973
211.84593
211.61236
211.37902
211.14594
210.91315
210.68065
210.44847
210.21663
209.98514
209.75401
209.52327
209.29292
209.06298
208.83347
209.19944
208.97132
208.74366
208.51646
208.28973
208.06349
207.83774
207.61249
207.38776
207.16355
206.93986
206.71672
206.49412
206.27208
206.0506
205.82968
205.60934
205.38959
205.17042
204.95185
204.73388
204.51652
204.29977
204.08364
203.86813
203.65326
203.43901
203.22541
203.01245
202.80014
202.58848
202.37748
202.16714
201.95746
201.74846
201.54012
201.33247
201.12549
200.9192
200.71359
200.50867
200.30444
200.10091
199.89808
199.69594
199.49451
199.29379
199.09377
198.89446
198.69586
198.49797
198.3008
198.10435
197.90862
197.7136
197.51931
197.32574
197.1329
196.94079
196.74941
196.55877
196.36888
196.17975
195.99141
195.80389
195.61704
195.43179
195.24032
195.07226
194.75382
163.56352
160.66293
146.56161
134.36396
124.66059
116.91179
110.47916
105.66513
102.23432
99.911858
98.435449
97.575084
97.14345
96.996959
97.034548
97.187815
97.409431
97.6675
97.94127
98.217496
98.487981
98.747892
98.994575
99.226761
99.444048
99.646562
99.834736
100.00918
100.17057
100.31964
100.45711
100.58366
100.69999
100.80672
100.90452
100.99384
101.07495
101.14837
101.21474
101.27447
101.32794
101.37548
101.41738
101.45395
101.48544
101.5121
101.53419
101.55192
101.56549
101.57511
101.58093
101.5831
101.58183
101.5773
101.56968
101.55911
101.54573
101.52965
101.51099
101.48987
101.46638
101.44065
101.41276
101.38281
101.35089
101.3171
101.28151
101.24421
101.20527
101.16479
101.12282
101.07943
101.0347
100.98868
100.94144
100.89303
100.84351
100.79293
100.74134
100.68879
100.63532
100.58098
100.52582
100.46986
100.41316
100.35573
100.29763
100.23889
100.17953
100.11958
100.05909
99.998059
99.936532
99.874529
99.812074
99.74919
99.6859
99.622223
99.558179
99.493789
99.429069
99.364037
99.29871
99.233104
99.167233
99.101112
99.034755
98.968175
98.901384
98.834396
98.767221
98.69987
98.632355
98.564685
98.496871
98.428922
98.360846
98.292653
98.224352
98.155949
98.087454
98.018874
97.950216
97.881487
97.812694
97.743844
97.674944
97.605998
97.537015
97.467998
97.398955
97.329891
97.260811
97.191721
97.122625
97.053529
96.984438
96.915357
96.84629
96.777241
96.708216
96.639219
96.570255
96.501326
96.432438
96.363595
96.294801
96.226059
96.157374
96.088749
96.020188
95.951695
95.883273
95.814926
95.746658
95.678471
95.610369
95.542355
95.474433
95.406606
95.338876
95.271248
95.203723
95.136305
95.068997
95.001802
94.934721
94.867759
94.800918
94.734199
94.667607
94.601143
94.53481
94.468609
94.402545
94.336618
94.270831
94.205186
94.139686
94.074332
94.009127
93.944072
93.87917
93.814423
93.749833
93.685401
93.621131
93.557024
93.493084
93.429316
93.365723
93.302317
93.239109
93.176108
93.113444
93.050439
92.990462
92.915859
92.890484
92.651191
)
;

boundaryField
{
    exteriorWall
    {
        type            calculated;
        value           uniform 0;
    }
    inlet
    {
        type            calculated;
        value           uniform 0;
    }
    outlet
    {
        type            calculated;
        value           uniform 0;
    }
    walls
    {
        type            calculated;
        value           nonuniform List<scalar> 0();
    }
    frontAndBack
    {
        type            empty;
    }
    frontAndBack_pos
    {
        type            wedge;
    }
    frontAndBack_neg
    {
        type            wedge;
    }
}


// ************************************************************************* //
