/*--------------------------------*- C++ -*----------------------------------*\
  =========                 |
  \\      /  F ield         | OpenFOAM: The Open Source CFD Toolbox
   \\    /   O peration     | Website:  https://openfoam.org
    \\  /    A nd           | Version:  10
     \\/     M anipulation  |
\*---------------------------------------------------------------------------*/
FoamFile
{
    format      ascii;
    class       surfaceScalarField;
    location    "800/FLUID";
    object      phi;
}
// * * * * * * * * * * * * * * * * * * * * * * * * * * * * * * * * * * * * * //

dimensions      [1 0 -1 0 0 0 0];

internalField   nonuniform List<scalar> 
2194
(
6.9267302e-06
-1.7706226e-07
7.1718309e-06
-2.4510077e-07
7.4200988e-06
-2.4826789e-07
7.655753e-06
-2.3565432e-07
7.8676636e-06
-2.1191056e-07
8.0501401e-06
-1.8247636e-07
8.2026449e-06
-1.5250474e-07
8.3269019e-06
-1.2425686e-07
8.4256128e-06
-9.8710834e-08
8.5018672e-06
-7.6254388e-08
8.5587348e-06
-5.6867647e-08
8.5990431e-06
-4.0308294e-08
8.6252922e-06
-2.6249236e-08
8.6395991e-06
-1.4306968e-08
8.6436973e-06
-4.0981892e-09
8.6390977e-06
4.5995924e-09
8.6272421e-06
1.18556e-08
8.6094765e-06
1.7765664e-08
8.5869897e-06
2.2486848e-08
8.5608159e-06
2.6173838e-08
8.5318482e-06
2.8967718e-08
8.5008515e-06
3.0996648e-08
8.468476e-06
3.2375445e-08
8.4352703e-06
3.3205741e-08
8.4016934e-06
3.3576841e-08
8.3681266e-06
3.3566788e-08
8.3348832e-06
3.3243433e-08
8.3022177e-06
3.2665484e-08
8.2703342e-06
3.1883499e-08
8.2393934e-06
3.0940809e-08
8.209519e-06
2.9874383e-08
8.1808034e-06
2.8715604e-08
8.1533124e-06
2.7490986e-08
8.1270897e-06
2.622277e-08
8.1021603e-06
2.4929396e-08
8.0785351e-06
2.3625187e-08
8.0562123e-06
2.2322737e-08
8.0351789e-06
2.1033483e-08
8.0154132e-06
1.9765628e-08
7.9968879e-06
1.8525301e-08
7.9795707e-06
1.7317255e-08
7.9634256e-06
1.6145098e-08
7.9484141e-06
1.501149e-08
7.9344958e-06
1.3918297e-08
7.9216291e-06
1.286672e-08
7.9097717e-06
1.1857399e-08
7.8988811e-06
1.0890528e-08
7.8889152e-06
9.9659529e-09
7.8798319e-06
9.0832992e-09
7.8715898e-06
8.242068e-09
7.8641478e-06
7.4420279e-09
7.8574656e-06
6.6821688e-09
7.8515051e-06
5.960547e-09
7.84623e-06
5.2751159e-09
7.8416059e-06
4.6240701e-09
7.8376001e-06
4.0057559e-09
7.8341815e-06
3.4186166e-09
7.8313203e-06
2.8611798e-09
7.8289883e-06
2.3320444e-09
7.8271584e-06
1.829865e-09
7.8258051e-06
1.353341e-09
7.8249039e-06
9.0116208e-10
7.8244319e-06
4.7206123e-10
7.824368e-06
6.3872963e-11
7.8246934e-06
-3.2545151e-10
7.8253901e-06
-6.9661683e-10
7.8264402e-06
-1.0501316e-09
7.8278268e-06
-1.3865813e-09
7.8295333e-06
-1.7065678e-09
7.8315441e-06
-2.0107058e-09
7.8338437e-06
-2.2996279e-09
7.8364177e-06
-2.5739777e-09
7.8392521e-06
-2.834402e-09
7.8423336e-06
-3.0815433e-09
7.8456496e-06
-3.3160343e-09
7.8491881e-06
-3.5384936e-09
7.8529377e-06
-3.7495218e-09
7.8568874e-06
-3.9496993e-09
7.8610269e-06
-4.1395846e-09
7.8653467e-06
-4.3197132e-09
7.8698372e-06
-4.4905973e-09
7.87449e-06
-4.6527251e-09
7.8792965e-06
-4.8065616e-09
7.8842491e-06
-4.9525486e-09
7.8893402e-06
-5.0911053e-09
7.8945628e-06
-5.222629e-09
7.8999103e-06
-5.3474957e-09
7.9053764e-06
-5.4660613e-09
7.910955e-06
-5.5786619e-09
7.9166407e-06
-5.6856152e-09
7.9224279e-06
-5.787221e-09
7.9283116e-06
-5.8837622e-09
7.9342871e-06
-5.9755058e-09
7.9403498e-06
-6.0627033e-09
7.9464954e-06
-6.1455921e-09
7.9527198e-06
-6.2243958e-09
7.9590192e-06
-6.2993251e-09
7.9653897e-06
-6.3705789e-09
7.9718281e-06
-6.4383442e-09
7.9783309e-06
-6.5027976e-09
7.984895e-06
-6.5641053e-09
7.9915174e-06
-6.6224241e-09
7.9981953e-06
-6.6779017e-09
8.004926e-06
-6.7306774e-09
8.0117069e-06
-6.7808826e-09
8.0185355e-06
-6.8286411e-09
8.0254096e-06
-6.8740697e-09
8.0323269e-06
-6.9172788e-09
8.0392852e-06
-6.9583723e-09
8.0462827e-06
-6.9974486e-09
8.0533173e-06
-7.0346002e-09
8.0603872e-06
-7.0699149e-09
8.0674907e-06
-7.1034754e-09
8.074626e-06
-7.1353599e-09
8.0817917e-06
-7.1656425e-09
8.0889861e-06
-7.1943931e-09
8.0962077e-06
-7.2216778e-09
8.1034553e-06
-7.2475594e-09
8.1107274e-06
-7.2720971e-09
8.1180228e-06
-7.2953472e-09
8.1253401e-06
-7.317363e-09
8.1326783e-06
-7.3381948e-09
8.1400362e-06
-7.3578907e-09
8.1474127e-06
-7.376496e-09
8.1548068e-06
-7.3940539e-09
8.1622174e-06
-7.4106053e-09
8.1696435e-06
-7.4261892e-09
8.1770844e-06
-7.4408425e-09
8.184539e-06
-7.4546004e-09
8.1920065e-06
-7.4674964e-09
8.1994861e-06
-7.4795623e-09
8.2069769e-06
-7.4908285e-09
8.2144782e-06
-7.5013238e-09
8.2219893e-06
-7.5110758e-09
8.2295094e-06
-7.5201107e-09
8.2370378e-06
-7.5284536e-09
8.244574e-06
-7.5361285e-09
8.2521171e-06
-7.5431582e-09
8.2596667e-06
-7.5495645e-09
8.2672221e-06
-7.5553683e-09
8.2747827e-06
-7.5605895e-09
8.2823479e-06
-7.5652472e-09
8.2899173e-06
-7.5693598e-09
8.2974902e-06
-7.5729447e-09
8.3050662e-06
-7.5760188e-09
8.3126448e-06
-7.5785981e-09
8.3202255e-06
-7.580698e-09
8.3278079e-06
-7.5823334e-09
8.3353914e-06
-7.5835185e-09
8.3429756e-06
-7.584267e-09
8.3505602e-06
-7.584592e-09
8.3581447e-06
-7.5845062e-09
8.3657288e-06
-7.5840218e-09
8.3733119e-06
-7.5831504e-09
8.3808938e-06
-7.5819034e-09
8.3884741e-06
-7.5802916e-09
8.3960524e-06
-7.5783254e-09
8.4036284e-06
-7.5760152e-09
8.4112018e-06
-7.5733705e-09
8.4187722e-06
-7.5704008e-09
8.4263393e-06
-7.5671152e-09
8.4339029e-06
-7.5635226e-09
8.4414625e-06
-7.5596314e-09
8.4490179e-06
-7.5554499e-09
8.4565689e-06
-7.550986e-09
8.4641152e-06
-7.5462475e-09
8.4716564e-06
-7.5412419e-09
8.4791924e-06
-7.5359763e-09
8.4867229e-06
-7.5304579e-09
8.4942475e-06
-7.5246934e-09
8.5017662e-06
-7.5186895e-09
8.5092787e-06
-7.5124524e-09
8.5167847e-06
-7.5059885e-09
8.524284e-06
-7.4993038e-09
8.5317764e-06
-7.492404e-09
8.5392617e-06
-7.4852948e-09
8.5467397e-06
-7.4779817e-09
8.5542101e-06
-7.47047e-09
8.5616729e-06
-7.4627646e-09
8.5691278e-06
-7.4548703e-09
8.5765746e-06
-7.4467917e-09
8.5840131e-06
-7.4385329e-09
8.5914432e-06
-7.4300973e-09
8.5988647e-06
-7.4214871e-09
8.6062774e-06
-7.4127031e-09
8.6136811e-06
-7.4037427e-09
8.6210757e-06
-7.3945974e-09
8.628461e-06
-7.3852487e-09
8.6358366e-06
-7.3756584e-09
8.6432024e-06
-7.3657527e-09
8.6505578e-06
-7.3553912e-09
8.6579021e-06
-7.3443018e-09
8.6652341e-06
-7.3319829e-09
8.6725514e-06
-7.3173505e-09
8.6798501e-06
-7.2986948e-09
8.6871203e-06
-7.2702234e-09
8.6943495e-06
-7.2291929e-09
8.7014718e-06
-7.1222841e-09
8.7085008e-06
-7.028964e-09
-6.1900428e-09
1.161182e-05
-5.8419733e-07
1.200495e-05
-6.382303e-07
1.2327851e-05
-5.7116883e-07
1.2590488e-05
-4.9829177e-07
1.2790348e-05
-4.1177081e-07
1.2933954e-05
-3.2608185e-07
1.3031469e-05
-2.5001926e-07
1.3092494e-05
-1.8528223e-07
1.312555e-05
-1.3176728e-07
1.3137844e-05
-8.8548223e-08
1.3135183e-05
-5.4206235e-08
1.3122075e-05
-2.7200569e-08
1.3101878e-05
-6.0516679e-09
1.3077214e-05
1.0356142e-08
1.305035e-05
2.2765703e-08
1.3023024e-05
3.1926338e-08
1.2996318e-05
3.8560995e-08
1.2970861e-05
4.3222973e-08
1.2947019e-05
4.6329236e-08
1.2924982e-05
4.8210494e-08
1.2904823e-05
4.9127124e-08
1.2886536e-05
4.9283683e-08
1.2870069e-05
4.8841859e-08
1.2855345e-05
4.7930364e-08
1.2842269e-05
4.6652407e-08
1.2830744e-05
4.5091358e-08
1.2820673e-05
4.3315004e-08
1.281196e-05
4.1378759e-08
1.2804515e-05
3.9328092e-08
1.2798255e-05
3.7200405e-08
1.2793103e-05
3.5026484e-08
1.2788987e-05
3.2831659e-08
1.2785841e-05
3.0636729e-08
1.2783606e-05
2.845871e-08
1.2782223e-05
2.6311477e-08
1.2781642e-05
2.420634e-08
1.2781812e-05
2.2153293e-08
1.2782686e-05
2.0158795e-08
1.2784228e-05
1.8224515e-08
1.27864e-05
1.6353284e-08
1.2789169e-05
1.4547655e-08
1.2792505e-05
1.2809428e-08
1.2796377e-05
1.1139645e-08
1.2800756e-05
9.5386605e-09
1.2805617e-05
8.0062393e-09
1.2810933e-05
6.5416518e-09
1.2816679e-05
5.1437573e-09
1.2822834e-05
3.8110813e-09
1.2829376e-05
2.5417489e-09
1.2836284e-05
1.3337367e-09
1.2843544e-05
1.8201023e-10
1.2851145e-05
-9.185779e-10
1.2859075e-05
-1.9695034e-09
1.2867321e-05
-2.9711573e-09
1.287587e-05
-3.924302e-09
1.2884705e-05
-4.8300042e-09
1.2893813e-05
-5.6895164e-09
1.2903179e-05
-6.5042483e-09
1.2912787e-05
-7.2757386e-09
1.2922622e-05
-8.0056192e-09
1.2932671e-05
-8.695577e-09
1.2942919e-05
-9.3473005e-09
1.2953354e-05
-9.9624595e-09
1.296396e-05
-1.0542249e-08
1.2974723e-05
-1.1088114e-08
1.2985628e-05
-1.1602256e-08
1.2996665e-05
-1.2086681e-08
1.3007822e-05
-1.2543146e-08
1.3019088e-05
-1.297326e-08
1.3030456e-05
-1.337851e-08
1.3041917e-05
-1.3760273e-08
1.3053463e-05
-1.4119833e-08
1.3065087e-05
-1.4458393e-08
1.3076782e-05
-1.4777086e-08
1.3088543e-05
-1.5076979e-08
1.3100364e-05
-1.5359081e-08
1.3112238e-05
-1.5624348e-08
1.3124162e-05
-1.5873684e-08
1.3136131e-05
-1.6107945e-08
1.3148139e-05
-1.6327943e-08
1.3160183e-05
-1.6534447e-08
1.3172258e-05
-1.6728185e-08
1.3184362e-05
-1.6909846e-08
1.3196489e-05
-1.7080081e-08
1.3208638e-05
-1.7239509e-08
1.3220804e-05
-1.7388711e-08
1.3232984e-05
-1.7528239e-08
1.3245177e-05
-1.7658612e-08
1.3257379e-05
-1.7780323e-08
1.3269587e-05
-1.7893834e-08
1.3281799e-05
-1.7999585e-08
1.3294013e-05
-1.8097986e-08
1.3306227e-05
-1.8189428e-08
1.3318439e-05
-1.8274278e-08
1.3330646e-05
-1.8352881e-08
1.3342847e-05
-1.8425565e-08
1.3355041e-05
-1.8492636e-08
1.3367224e-05
-1.8554386e-08
1.3379397e-05
-1.8611086e-08
1.3391557e-05
-1.8662995e-08
1.3403704e-05
-1.8710355e-08
1.3415835e-05
-1.8753397e-08
1.3427949e-05
-1.8792334e-08
1.3440046e-05
-1.8827373e-08
1.3452124e-05
-1.8858703e-08
1.3464181e-05
-1.8886507e-08
1.3476218e-05
-1.8910956e-08
1.3488233e-05
-1.8932211e-08
1.3500225e-05
-1.8950424e-08
1.3512194e-05
-1.896574e-08
1.3524137e-05
-1.8978293e-08
1.3536056e-05
-1.8988214e-08
1.3547948e-05
-1.8995622e-08
1.3559813e-05
-1.9000633e-08
1.3571651e-05
-1.9003355e-08
1.358346e-05
-1.9003891e-08
1.3595241e-05
-1.9002338e-08
1.3606992e-05
-1.8998788e-08
1.3618713e-05
-1.8993329e-08
1.3630404e-05
-1.8986042e-08
1.3642064e-05
-1.8977007e-08
1.3653692e-05
-1.8966298e-08
1.3665288e-05
-1.8953985e-08
1.3676852e-05
-1.8940135e-08
1.3688382e-05
-1.8924812e-08
1.369988e-05
-1.8908075e-08
1.3711344e-05
-1.8889984e-08
1.3722773e-05
-1.8870592e-08
1.3734169e-05
-1.8849951e-08
1.3745529e-05
-1.8828111e-08
1.3756855e-05
-1.8805119e-08
1.3768145e-05
-1.878102e-08
1.37794e-05
-1.8755857e-08
1.3790618e-05
-1.8729671e-08
1.3801801e-05
-1.8702501e-08
1.3812946e-05
-1.8674384e-08
1.3824056e-05
-1.8645357e-08
1.3835128e-05
-1.8615453e-08
1.3846163e-05
-1.8584705e-08
1.3857161e-05
-1.8553145e-08
1.3868121e-05
-1.8520802e-08
1.3879044e-05
-1.8487705e-08
1.3889928e-05
-1.8453882e-08
1.3900774e-05
-1.8419359e-08
1.3911583e-05
-1.8384162e-08
1.3922352e-05
-1.8348315e-08
1.3933084e-05
-1.8311842e-08
1.3943776e-05
-1.8274765e-08
1.395443e-05
-1.8237106e-08
1.3965044e-05
-1.8198887e-08
1.397562e-05
-1.8160126e-08
1.3986156e-05
-1.8120844e-08
1.3996653e-05
-1.808106e-08
1.4007111e-05
-1.8040792e-08
1.4017529e-05
-1.8000057e-08
1.4027907e-05
-1.7958872e-08
1.4038246e-05
-1.7917254e-08
1.4048546e-05
-1.7875218e-08
1.4058805e-05
-1.7832781e-08
1.4069025e-05
-1.7789956e-08
1.4079204e-05
-1.7746759e-08
1.4089344e-05
-1.7703202e-08
1.4099444e-05
-1.7659301e-08
1.4109503e-05
-1.7615068e-08
1.4119523e-05
-1.7570516e-08
1.4129502e-05
-1.7525657e-08
1.4139441e-05
-1.7480503e-08
1.414934e-05
-1.7435067e-08
1.4159199e-05
-1.7389359e-08
1.4169018e-05
-1.7343391e-08
1.4178797e-05
-1.7297174e-08
1.4188535e-05
-1.7250718e-08
1.4198233e-05
-1.7204032e-08
1.4207891e-05
-1.7157128e-08
1.4217508e-05
-1.7110015e-08
1.4227086e-05
-1.7062701e-08
1.4236623e-05
-1.7015197e-08
1.424612e-05
-1.696751e-08
1.4255577e-05
-1.6919649e-08
1.4264994e-05
-1.6871622e-08
1.427437e-05
-1.6823437e-08
1.4283707e-05
-1.6775099e-08
1.4293003e-05
-1.6726615e-08
1.430226e-05
-1.6677988e-08
1.4311476e-05
-1.6629221e-08
1.4320653e-05
-1.6580308e-08
1.432979e-05
-1.6531238e-08
1.4338886e-05
-1.6481983e-08
1.4347943e-05
-1.6432487e-08
1.435696e-05
-1.6382646e-08
1.4365937e-05
-1.6332264e-08
1.4374874e-05
-1.628098e-08
1.438377e-05
-1.6228174e-08
1.4392625e-05
-1.617248e-08
1.4401438e-05
-1.6112359e-08
1.4410208e-05
-1.603923e-08
1.4418938e-05
-1.5959551e-08
1.4427568e-05
-1.5752885e-08
1.4436249e-05
-1.5709145e-08
-1.3427333e-08
1.0264591e-05
-1.0137515e-06
1.0445078e-05
-8.1871741e-07
1.0511161e-05
-6.3725131e-07
1.0523065e-05
-5.1019593e-07
1.0502556e-05
-3.912613e-07
1.0468105e-05
-2.916311e-07
1.0430086e-05
-2.1200068e-07
1.0393938e-05
-1.4913387e-07
1.0362661e-05
-1.0049079e-07
1.0337764e-05
-6.3651284e-08
1.031982e-05
-3.6262094e-08
1.0308837e-05
-1.6217272e-08
1.0304469e-05
-1.6836856e-09
1.0306137e-05
8.6876634e-09
1.0313073e-05
1.5830038e-08
1.0324454e-05
2.0545381e-08
1.0339545e-05
2.3469743e-08
1.035769e-05
2.5078092e-08
1.0378306e-05
2.5713406e-08
1.0400888e-05
2.5628995e-08
1.0425002e-05
2.5012792e-08
1.0450281e-05
2.4004357e-08
1.0476415e-05
2.2708191e-08
1.0503142e-05
2.1203367e-08
1.0530244e-05
1.9550366e-08
1.0557539e-05
1.7795958e-08
1.0584878e-05
1.597669e-08
1.0612135e-05
1.4121372e-08
1.063921e-05
1.2252871e-08
1.0666021e-05
1.0389422e-08
1.0692502e-05
8.5456187e-09
1.0718601e-05
6.7332105e-09
1.0744275e-05
4.9618219e-09
1.0769494e-05
3.2401535e-09
1.0794229e-05
1.5766022e-09
1.0818445e-05
-9.5295408e-12
1.0842119e-05
-1.5208822e-09
1.0865253e-05
-2.9751957e-09
1.0887847e-05
-4.3695522e-09
1.0909901e-05
-5.7011779e-09
1.0931418e-05
-6.9689844e-09
1.09524e-05
-8.1727415e-09
1.0972853e-05
-9.3128845e-09
1.0992782e-05
-1.0390402e-08
1.1012195e-05
-1.1406702e-08
1.10311e-05
-1.2363494e-08
1.1049506e-05
-1.3262705e-08
1.1067424e-05
-1.4106403e-08
1.1084862e-05
-1.4896688e-08
1.1101832e-05
-1.5635674e-08
1.1118337e-05
-1.6322849e-08
1.1134377e-05
-1.6958894e-08
1.1149956e-05
-1.7549039e-08
1.1165083e-05
-1.8097942e-08
1.1179768e-05
-1.8608766e-08
1.1194022e-05
-1.9083837e-08
1.1207857e-05
-1.952503e-08
1.1221287e-05
-1.9933974e-08
1.1234323e-05
-2.031218e-08
1.1246979e-05
-2.0661101e-08
1.1259265e-05
-2.0982158e-08
1.1271195e-05
-2.1276745e-08
1.1282778e-05
-2.1546249e-08
1.1294028e-05
-2.1791882e-08
1.1304955e-05
-2.2014765e-08
1.1315569e-05
-2.2216196e-08
1.132588e-05
-2.2397505e-08
1.1335896e-05
-2.2559958e-08
1.1345628e-05
-2.2704759e-08
1.1355082e-05
-2.283303e-08
1.1364268e-05
-2.2945821e-08
1.1373192e-05
-2.3044105e-08
1.1381863e-05
-2.312879e-08
1.1390286e-05
-2.3200724e-08
1.139847e-05
-2.3260703e-08
1.140642e-05
-2.3309472e-08
1.1414144e-05
-2.3347731e-08
1.1421646e-05
-2.3376139e-08
1.1428934e-05
-2.3395319e-08
1.1436011e-05
-2.3405854e-08
1.1442885e-05
-2.3408296e-08
1.144956e-05
-2.3403163e-08
1.1456041e-05
-2.3390945e-08
1.1462333e-05
-2.3372102e-08
1.1468441e-05
-2.3347067e-08
1.1474368e-05
-2.3316247e-08
1.148012e-05
-2.3280027e-08
1.14857e-05
-2.3238768e-08
1.1491113e-05
-2.3192807e-08
1.1496362e-05
-2.3142465e-08
1.150145e-05
-2.3088039e-08
1.1506382e-05
-2.3029811e-08
1.151116e-05
-2.2968045e-08
1.1515789e-05
-2.2902987e-08
1.1520271e-05
-2.2834871e-08
1.152461e-05
-2.2763914e-08
1.1528807e-05
-2.2690319e-08
1.1532867e-05
-2.2614279e-08
1.1536792e-05
-2.2535973e-08
1.1540585e-05
-2.2455568e-08
1.1544247e-05
-2.2373224e-08
1.1547783e-05
-2.2289086e-08
1.1551194e-05
-2.2203295e-08
1.1554483e-05
-2.2115978e-08
1.1557651e-05
-2.2027258e-08
1.1560702e-05
-2.1937249e-08
1.1563637e-05
-2.1846056e-08
1.1566459e-05
-2.175378e-08
1.1569169e-05
-2.1660514e-08
1.1571769e-05
-2.1566346e-08
1.1574262e-05
-2.1471357e-08
1.157665e-05
-2.1375624e-08
1.1578933e-05
-2.127922e-08
1.1581115e-05
-2.1182211e-08
1.1583196e-05
-2.108466e-08
1.1585179e-05
-2.0986628e-08
1.1587065e-05
-2.0888168e-08
1.1588855e-05
-2.0789333e-08
1.1590552e-05
-2.0690171e-08
1.1592157e-05
-2.0590728e-08
1.1593671e-05
-2.0491047e-08
1.1595096e-05
-2.0391168e-08
1.1596433e-05
-2.0291127e-08
1.1597684e-05
-2.019096e-08
1.159885e-05
-2.00907e-08
1.1599932e-05
-1.9990379e-08
1.1600932e-05
-1.9890023e-08
1.1601851e-05
-1.9789662e-08
1.160269e-05
-1.968932e-08
1.1603451e-05
-1.9589022e-08
1.1604135e-05
-1.9488789e-08
1.1604743e-05
-1.9388643e-08
1.1605275e-05
-1.9288604e-08
1.1605734e-05
-1.9188689e-08
1.1606121e-05
-1.9088917e-08
1.1606436e-05
-1.8989304e-08
1.160668e-05
-1.8889865e-08
1.1606855e-05
-1.8790615e-08
1.1606962e-05
-1.8691567e-08
1.1607002e-05
-1.8592734e-08
1.1606975e-05
-1.8494129e-08
1.1606883e-05
-1.8395761e-08
1.1606727e-05
-1.8297643e-08
1.1606507e-05
-1.8199784e-08
1.1606226e-05
-1.8102193e-08
1.1605882e-05
-1.8004879e-08
1.1605478e-05
-1.7907852e-08
1.1605014e-05
-1.7811118e-08
1.1604492e-05
-1.7714685e-08
1.1603912e-05
-1.7618561e-08
1.1603274e-05
-1.7522751e-08
1.1602581e-05
-1.7427262e-08
1.1601832e-05
-1.7332101e-08
1.1601028e-05
-1.7237272e-08
1.1600171e-05
-1.7142781e-08
1.1599261e-05
-1.7048632e-08
1.1598298e-05
-1.6954832e-08
1.1597284e-05
-1.6861384e-08
1.159622e-05
-1.6768292e-08
1.1595106e-05
-1.6675561e-08
1.1593942e-05
-1.6583194e-08
1.159273e-05
-1.6491196e-08
1.159147e-05
-1.6399569e-08
1.1590164e-05
-1.6308316e-08
1.158881e-05
-1.6217442e-08
1.1587412e-05
-1.6126949e-08
1.1585968e-05
-1.603684e-08
1.158448e-05
-1.5947117e-08
1.1582949e-05
-1.5857783e-08
1.1581374e-05
-1.5768841e-08
1.1579757e-05
-1.5680292e-08
1.1578099e-05
-1.559214e-08
1.1576399e-05
-1.5504385e-08
1.1574659e-05
-1.541703e-08
1.1572879e-05
-1.5330077e-08
1.157106e-05
-1.5243527e-08
1.1569202e-05
-1.5157381e-08
1.1567306e-05
-1.5071641e-08
1.1565373e-05
-1.4986307e-08
1.1563402e-05
-1.4901381e-08
1.1561396e-05
-1.4816862e-08
1.1559354e-05
-1.4732751e-08
1.1557276e-05
-1.4649047e-08
1.1555164e-05
-1.4565748e-08
1.1553017e-05
-1.448285e-08
1.1550837e-05
-1.4400345e-08
1.1548624e-05
-1.4318219e-08
1.1546379e-05
-1.4236448e-08
1.1544101e-05
-1.4154988e-08
1.1541792e-05
-1.4073761e-08
1.1539453e-05
-1.3992633e-08
1.1537083e-05
-1.3911375e-08
1.1534685e-05
-1.3829685e-08
1.1532259e-05
-1.3746981e-08
1.1529811e-05
-1.3664225e-08
1.152735e-05
-1.3578493e-08
1.1524914e-05
-1.352299e-08
1.152257e-05
-1.3409054e-08
1.1520637e-05
-1.3776026e-08
-1.2153949e-08
7.4522902e-06
-1.1595754e-06
7.3381959e-06
-7.0462309e-07
7.2160736e-06
-5.1512899e-07
7.1111125e-06
-4.0523484e-07
7.0302832e-06
-3.104321e-07
6.973677e-06
-2.350249e-07
6.9369252e-06
-1.7524885e-07
6.9159117e-06
-1.2812039e-07
6.9073396e-06
-9.1918687e-08
6.9085657e-06
-6.4877362e-08
6.917495e-06
-4.5191484e-08
6.9324755e-06
-3.1197702e-08
6.9522515e-06
-2.1459725e-08
6.9757319e-06
-1.4792726e-08
7.0018757e-06
-1.0313769e-08
7.0298388e-06
-7.4176798e-09
7.0589547e-06
-5.6461543e-09
7.0886914e-06
-4.6586508e-09
7.1186201e-06
-4.2152909e-09
7.148396e-06
-4.1469003e-09
7.1777431e-06
-4.3342964e-09
7.2064415e-06
-4.6940326e-09
7.2343173e-06
-5.1676145e-09
7.2612345e-06
-5.7138138e-09
7.2870882e-06
-6.3033671e-09
7.3117995e-06
-6.9153262e-09
7.3353107e-06
-7.5345588e-09
7.3575822e-06
-8.1500463e-09
7.3785888e-06
-8.7537195e-09
7.3983178e-06
-9.3396559e-09
7.416767e-06
-9.9035116e-09
7.4339423e-06
-1.0442089e-08
7.4498571e-06
-1.0953005e-08
7.4645315e-06
-1.1434213e-08
7.4779925e-06
-1.1884414e-08
7.4902886e-06
-1.2305658e-08
7.5014637e-06
-1.2695984e-08
7.5115434e-06
-1.3054918e-08
7.5205601e-06
-1.3386189e-08
7.5285497e-06
-1.3690824e-08
7.5355501e-06
-1.3969352e-08
7.5415996e-06
-1.4222299e-08
7.5467371e-06
-1.4450311e-08
7.5510008e-06
-1.4654183e-08
7.554429e-06
-1.483483e-08
7.5570587e-06
-1.4993251e-08
7.5589265e-06
-1.5130499e-08
7.5600678e-06
-1.5247658e-08
7.5605169e-06
-1.5345824e-08
7.5603075e-06
-1.5426296e-08
7.5594742e-06
-1.5489559e-08
7.5580508e-06
-1.5535499e-08
7.5560671e-06
-1.5565332e-08
7.5535501e-06
-1.5580944e-08
7.5505253e-06
-1.5583905e-08
7.5470168e-06
-1.5575417e-08
7.5430482e-06
-1.5556419e-08
7.5386419e-06
-1.5527684e-08
7.5338197e-06
-1.5489891e-08
7.5286022e-06
-1.5443664e-08
7.5230097e-06
-1.5389598e-08
7.5170612e-06
-1.5328266e-08
7.5107752e-06
-1.5260243e-08
7.5041693e-06
-1.5186043e-08
7.4972607e-06
-1.5106107e-08
7.4900654e-06
-1.5020918e-08
7.4825989e-06
-1.4930969e-08
7.4748756e-06
-1.4836725e-08
7.4669095e-06
-1.4738635e-08
7.4587136e-06
-1.4637117e-08
7.4503003e-06
-1.4532561e-08
7.4416816e-06
-1.4425328e-08
7.4328685e-06
-1.4315748e-08
7.4238719e-06
-1.420413e-08
7.414702e-06
-1.4090756e-08
7.4053684e-06
-1.3975889e-08
7.3958804e-06
-1.385977e-08
7.3862469e-06
-1.3742626e-08
7.3764763e-06
-1.3624663e-08
7.3665765e-06
-1.3506076e-08
7.3565552e-06
-1.3387043e-08
7.3464198e-06
-1.3267728e-08
7.3361771e-06
-1.3148283e-08
7.3258339e-06
-1.302885e-08
7.3153964e-06
-1.2909558e-08
7.3048706e-06
-1.2790524e-08
7.2942625e-06
-1.2671859e-08
7.2835774e-06
-1.2553661e-08
7.2728206e-06
-1.2436021e-08
7.2619971e-06
-1.2319021e-08
7.2511118e-06
-1.2202737e-08
7.2401693e-06
-1.2087237e-08
7.2291738e-06
-1.1972581e-08
7.2181296e-06
-1.1858824e-08
7.2070408e-06
-1.1746016e-08
7.1959111e-06
-1.1634199e-08
7.1847441e-06
-1.1523411e-08
7.1735436e-06
-1.1413687e-08
7.1623126e-06
-1.1305056e-08
7.1510546e-06
-1.1197542e-08
7.1397726e-06
-1.1091167e-08
7.1284694e-06
-1.0985949e-08
7.117148e-06
-1.0881903e-08
7.1058111e-06
-1.0779039e-08
7.0944612e-06
-1.0677368e-08
7.0831008e-06
-1.0576894e-08
7.0717324e-06
-1.0477623e-08
7.0603582e-06
-1.0379555e-08
7.0489804e-06
-1.0282691e-08
7.037601e-06
-1.0187029e-08
7.0262222e-06
-1.0092565e-08
7.0148459e-06
-9.9992937e-09
7.0034739e-06
-9.9072092e-09
6.992108e-06
-9.8163037e-09
6.9807499e-06
-9.7265682e-09
6.9694013e-06
-9.6379931e-09
6.9580637e-06
-9.5505677e-09
6.9467386e-06
-9.4642806e-09
6.9354276e-06
-9.3791195e-09
6.9241319e-06
-9.2950718e-09
6.912853e-06
-9.2121241e-09
6.9015921e-06
-9.1302627e-09
6.8903504e-06
-9.0494733e-09
6.8791292e-06
-8.9697414e-09
6.8679296e-06
-8.8910523e-09
6.8567526e-06
-8.8133909e-09
6.8455993e-06
-8.7367418e-09
6.8344707e-06
-8.6610899e-09
6.8233678e-06
-8.5864196e-09
6.8122915e-06
-8.5127154e-09
6.8012427e-06
-8.4399618e-09
6.7902222e-06
-8.3681431e-09
6.7792308e-06
-8.297244e-09
6.7682694e-06
-8.2272488e-09
6.7573386e-06
-8.1581423e-09
6.7464392e-06
-8.0899091e-09
6.7355719e-06
-8.0225341e-09
6.7247373e-06
-7.9560023e-09
6.713936e-06
-7.8902987e-09
6.7031687e-06
-7.8254087e-09
6.6924359e-06
-7.7613178e-09
6.6817381e-06
-7.6980116e-09
6.6710759e-06
-7.6354761e-09
6.6604499e-06
-7.5736972e-09
6.6498603e-06
-7.5126614e-09
6.6393078e-06
-7.4523551e-09
6.6287927e-06
-7.3927652e-09
6.6183155e-06
-7.3338785e-09
6.6078765e-06
-7.2756825e-09
6.5974761e-06
-7.2181644e-09
6.5871146e-06
-7.161312e-09
6.5767925e-06
-7.1051134e-09
6.5665099e-06
-7.0495566e-09
6.5562673e-06
-6.9946302e-09
6.5460648e-06
-6.9403227e-09
6.5359028e-06
-6.8866233e-09
6.5257815e-06
-6.833521e-09
6.5157011e-06
-6.7810052e-09
6.5056619e-06
-6.7290657e-09
6.495664e-06
-6.6776924e-09
6.4857077e-06
-6.6268754e-09
6.4757931e-06
-6.5766052e-09
6.4659204e-06
-6.5268722e-09
6.4560898e-06
-6.4776675e-09
6.4463013e-06
-6.4289821e-09
6.4365552e-06
-6.3808072e-09
6.4268515e-06
-6.3331345e-09
6.4171903e-06
-6.2859555e-09
6.4075718e-06
-6.2392622e-09
6.397996e-06
-6.1930468e-09
6.388463e-06
-6.1473016e-09
6.3789729e-06
-6.1020189e-09
6.3695257e-06
-6.0571915e-09
6.3601215e-06
-6.0128122e-09
6.3507603e-06
-5.9688738e-09
6.3414421e-06
-5.9253695e-09
6.332167e-06
-5.8822925e-09
6.322935e-06
-5.8396361e-09
6.3137461e-06
-5.7973936e-09
6.3046003e-06
-5.7555585e-09
6.2954976e-06
-5.7141242e-09
6.2864379e-06
-5.6730842e-09
6.2774213e-06
-5.6324315e-09
6.2684477e-06
-5.592159e-09
6.2595171e-06
-5.5522583e-09
6.2506295e-06
-5.5127198e-09
6.2417848e-06
-5.4735305e-09
6.232983e-06
-5.4346721e-09
6.2242241e-06
-5.3961162e-09
6.2155082e-06
-5.357817e-09
6.2068353e-06
-5.3197007e-09
6.1982055e-06
-5.2816396e-09
6.1896193e-06
-5.2435042e-09
6.1810772e-06
-5.2048614e-09
6.1725802e-06
-5.1671984e-09
6.1641279e-06
-5.1262214e-09
6.1557253e-06
-5.1203791e-09
6.1473958e-06
-5.079509e-09
6.1391397e-06
-5.520004e-09
-6.4006267e-09
4.7661572e-06
-8.7733467e-07
4.5007612e-06
-4.3922702e-07
4.3110959e-06
-3.2546376e-07
4.1599582e-06
-2.5409714e-07
4.0441699e-06
-1.9464375e-07
3.9566744e-06
-1.4752935e-07
3.8910207e-06
-1.0959516e-07
3.8424664e-06
-7.9566115e-08
3.8071311e-06
-5.6583345e-08
3.7817931e-06
-3.9539337e-08
3.7638623e-06
-2.7260701e-08
3.7513119e-06
-1.8647321e-08
3.7426144e-06
-1.2762251e-08
3.7366376e-06
-8.8159137e-09
3.7325114e-06
-6.1875619e-09
3.729561e-06
-4.4672495e-09
3.7272816e-06
-3.366768e-09
3.7253037e-06
-2.6807529e-09
3.7233576e-06
-2.2692023e-09
3.7212481e-06
-2.0374286e-09
3.7188356e-06
-1.9217546e-09
3.7160215e-06
-1.8799407e-09
3.7127381e-06
-1.884229e-09
3.7089408e-06
-1.9164803e-09
3.7046023e-06
-1.9649013e-09
3.6997088e-06
-2.0218588e-09
3.6942567e-06
-2.082434e-09
3.6882501e-06
-2.1434751e-09
3.6816994e-06
-2.202981e-09
3.6746195e-06
-2.2597001e-09
3.6670288e-06
-2.3128684e-09
3.6589487e-06
-2.3620238e-09
3.6504026e-06
-2.4068927e-09
3.6414156e-06
-2.447223e-09
3.632014e-06
-2.4827672e-09
3.6222247e-06
-2.5163195e-09
3.6120754e-06
-2.5467334e-09
3.601592e-06
-2.5714976e-09
3.5907981e-06
-2.5923476e-09
3.5797174e-06
-2.6101047e-09
3.5683732e-06
-2.6250771e-09
3.5567883e-06
-2.6374204e-09
3.5449852e-06
-2.6472444e-09
3.5329857e-06
-2.6546573e-09
3.5208106e-06
-2.6597777e-09
3.5084801e-06
-2.6627338e-09
3.4960133e-06
-2.6636582e-09
3.4834283e-06
-2.6626908e-09
3.4707424e-06
-2.6599582e-09
3.4579719e-06
-2.6557439e-09
3.4451325e-06
-2.6501751e-09
3.4322399e-06
-2.6429101e-09
3.4193085e-06
-2.6338914e-09
3.406351e-06
-2.6234472e-09
3.393379e-06
-2.6118839e-09
3.3804029e-06
-2.5994042e-09
3.3674327e-06
-2.5861337e-09
3.3544771e-06
-2.5721481e-09
3.3415447e-06
-2.5574975e-09
3.3286433e-06
-2.5422218e-09
3.3157801e-06
-2.5263598e-09
3.3029617e-06
-2.5099504e-09
3.2901945e-06
-2.4930491e-09
3.2774842e-06
-2.4757017e-09
3.264836e-06
-2.4579263e-09
3.2522549e-06
-2.4397588e-09
3.2397451e-06
-2.4212428e-09
3.2273108e-06
-2.4024193e-09
3.2149555e-06
-2.3833301e-09
3.2026824e-06
-2.3640165e-09
3.1904944e-06
-2.3445172e-09
3.1783939e-06
-2.3248672e-09
3.1663833e-06
-2.3050985e-09
3.1544644e-06
-2.2852401e-09
3.1426389e-06
-2.2653184e-09
3.1309084e-06
-2.2453579e-09
3.119274e-06
-2.2253809e-09
3.1077368e-06
-2.2054079e-09
3.0962976e-06
-2.1854583e-09
3.0849571e-06
-2.1655496e-09
3.0737157e-06
-2.1456985e-09
3.0625739e-06
-2.12592e-09
3.0515319e-06
-2.1062283e-09
3.0405897e-06
-2.0866363e-09
3.0297473e-06
-2.067156e-09
3.0190045e-06
-2.0477983e-09
3.0083612e-06
-2.0285733e-09
2.9978171e-06
-2.0094902e-09
2.9873716e-06
-1.9905572e-09
2.9770244e-06
-1.971782e-09
2.9667748e-06
-1.9531712e-09
2.9566223e-06
-1.934731e-09
2.9465662e-06
-1.9164667e-09
2.9366057e-06
-1.898383e-09
2.9267402e-06
-1.8804842e-09
2.9169688e-06
-1.8627739e-09
2.9072906e-06
-1.8452551e-09
2.8977049e-06
-1.8279304e-09
2.8882106e-06
-1.810802e-09
2.878807e-06
-1.7938715e-09
2.8694929e-06
-1.7771403e-09
2.8602676e-06
-1.7606093e-09
2.85113e-06
-1.7442791e-09
2.8420791e-06
-1.7281499e-09
2.8331139e-06
-1.7122217e-09
2.8242335e-06
-1.6964941e-09
2.8154369e-06
-1.6809667e-09
2.806723e-06
-1.6656386e-09
2.7980908e-06
-1.6505087e-09
2.7895393e-06
-1.6355759e-09
2.7810676e-06
-1.6208387e-09
2.7726746e-06
-1.6062957e-09
2.7643593e-06
-1.591945e-09
2.7561208e-06
-1.5777848e-09
2.7479581e-06
-1.5638131e-09
2.7398701e-06
-1.5500278e-09
2.731856e-06
-1.5364269e-09
2.7239147e-06
-1.5230079e-09
2.7160453e-06
-1.5097686e-09
2.708247e-06
-1.4967065e-09
2.7005187e-06
-1.4838193e-09
2.6928595e-06
-1.4711043e-09
2.6852686e-06
-1.4585591e-09
2.677745e-06
-1.4461811e-09
2.670288e-06
-1.4339676e-09
2.6628965e-06
-1.421916e-09
2.6555698e-06
-1.4100238e-09
2.648307e-06
-1.3982882e-09
2.6411072e-06
-1.3867067e-09
2.6339698e-06
-1.3752765e-09
2.6268938e-06
-1.3639951e-09
2.6198786e-06
-1.3528598e-09
2.6129232e-06
-1.3418681e-09
2.6060269e-06
-1.3310173e-09
2.5991891e-06
-1.3203049e-09
2.5924089e-06
-1.3097283e-09
2.5856857e-06
-1.299285e-09
2.5790187e-06
-1.2889726e-09
2.5724071e-06
-1.2787886e-09
2.5658505e-06
-1.2687304e-09
2.5593479e-06
-1.2587958e-09
2.5528989e-06
-1.2489824e-09
2.5465027e-06
-1.2392879e-09
2.5401587e-06
-1.22971e-09
2.5338663e-06
-1.2202465e-09
2.5276249e-06
-1.2108951e-09
2.5214337e-06
-1.2016538e-09
2.5152924e-06
-1.1925204e-09
2.5092002e-06
-1.1834929e-09
2.5031566e-06
-1.1745692e-09
2.497161e-06
-1.1657473e-09
2.491213e-06
-1.1570253e-09
2.4853118e-06
-1.1484013e-09
2.479457e-06
-1.1398734e-09
2.4736482e-06
-1.1314398e-09
2.4678846e-06
-1.1230988e-09
2.462166e-06
-1.1148485e-09
2.4564916e-06
-1.1066874e-09
2.4508612e-06
-1.0986138e-09
2.4452741e-06
-1.0906261e-09
2.43973e-06
-1.0827227e-09
2.4342283e-06
-1.0749021e-09
2.4287686e-06
-1.0671628e-09
2.4233504e-06
-1.0595035e-09
2.4179733e-06
-1.0519227e-09
2.4126369e-06
-1.0444191e-09
2.4073408e-06
-1.0369912e-09
2.4020845e-06
-1.0296379e-09
2.3968676e-06
-1.022358e-09
2.3916897e-06
-1.01515e-09
2.3865504e-06
-1.0080129e-09
2.3814493e-06
-1.0009456e-09
2.3763861e-06
-9.9394674e-10
2.3713603e-06
-9.8701535e-10
2.3663716e-06
-9.8015029e-10
2.3614195e-06
-9.7335042e-10
2.3565039e-06
-9.6661472e-10
2.3516242e-06
-9.5994209e-10
2.3467801e-06
-9.5333146e-10
2.3419713e-06
-9.4678177e-10
2.3371975e-06
-9.4029193e-10
2.3324583e-06
-9.3386083e-10
2.3277533e-06
-9.274872e-10
2.3230823e-06
-9.2116969e-10
2.318445e-06
-9.1490667e-10
2.313841e-06
-9.0869593e-10
2.30927e-06
-9.0253428e-10
2.3047317e-06
-8.9641689e-10
2.3002259e-06
-8.9033577e-10
2.2957524e-06
-8.842773e-10
2.2913109e-06
-8.782208e-10
2.2869014e-06
-8.7211891e-10
2.2825239e-06
-8.659769e-10
2.2781785e-06
-8.5945011e-10
2.2738652e-06
-8.5395669e-10
2.2695836e-06
-8.4456058e-10
2.2653193e-06
-8.5609611e-10
2.2610822e-06
-8.424518e-10
2.2565264e-06
-9.6422103e-10
-2.2162916e-09
2.4824917e-06
2.0432647e-06
1.7178009e-06
1.4637038e-06
1.26906e-06
1.1215307e-06
1.0119355e-06
9.3236938e-07
8.7578604e-07
8.362467e-07
8.08986e-07
7.9033868e-07
7.7757643e-07
7.6876051e-07
7.6257295e-07
7.581057e-07
7.5473894e-07
7.5205818e-07
7.4978898e-07
7.4775155e-07
7.458298e-07
7.4394985e-07
7.4206562e-07
7.4014914e-07
7.3818424e-07
7.3616238e-07
7.3407995e-07
7.3193648e-07
7.297335e-07
7.274738e-07
7.2516093e-07
7.227989e-07
7.2039201e-07
7.1794479e-07
7.1546202e-07
7.129457e-07
7.1039897e-07
7.0782747e-07
7.0523512e-07
7.0262502e-07
6.9999994e-07
6.9736252e-07
6.9471528e-07
6.9206062e-07
6.8940084e-07
6.8673811e-07
6.8407445e-07
6.8141176e-07
6.787518e-07
6.7609606e-07
6.7344588e-07