/*--------------------------------*- C++ -*----------------------------------*\
  =========                 |
  \\      /  F ield         | OpenFOAM: The Open Source CFD Toolbox
   \\    /   O peration     | Website:  https://openfoam.org
    \\  /    A nd           | Version:  10
     \\/     M anipulation  |
\*---------------------------------------------------------------------------*/
FoamFile
{
    format      ascii;
    class       volScalarField;
    location    "800/FLUID";
    object      rho;
}
// * * * * * * * * * * * * * * * * * * * * * * * * * * * * * * * * * * * * * //

dimensions      [1 -3 0 0 0 0 0];

internalField   nonuniform List<scalar> 
1200
(
1.2454943
1.2432347
1.2391465
1.2330126
1.2248412
1.2147845
1.2030521
1.1898716
1.1754663
1.1600453
1.1438002
1.1269053
1.1095168
1.0917654
1.0737661
1.0555723
1.0372695
1.0189894
1.0008446
0.98292899
0.96531964
0.94807822
0.93125277
0.91487944
0.89898416
0.88358418
0.86868943
0.8543038
0.84042621
0.82705159
0.81417167
0.80177569
0.78985099
0.77838351
0.7673582
0.75675934
0.74657079
0.73677629
0.72735964
0.71830483
0.70959619
0.70121843
0.69315671
0.6853967
0.6779246
0.67072713
0.66379161
0.65710587
0.65065833
0.64443792
0.63843406
0.63263653
0.6270357
0.62162252
0.61638847
0.61132548
0.60642593
0.6016826
0.59708865
0.59263758
0.58832326
0.58413986
0.58008183
0.57614382
0.57232021
0.56860639
0.5649981
0.56149122
0.55808185
0.55476623
0.55154077
0.54840207
0.54534685
0.54237201
0.53947457
0.5366517
0.5339007
0.531219
0.52860413
0.52605375
0.52356561
0.52113759
0.51876762
0.51645378
0.51419418
0.51198704
0.50983065
0.50772339
0.50566369
0.50365005
0.50168104
0.49975527
0.49787144
0.49602827
0.49422456
0.49245913
0.49073086
0.48903869
0.48738158
0.48575852
0.48416857
0.4826108
0.48108433
0.47958829
0.47812188
0.4766843
0.47527477
0.47389256
0.47253697
0.4712073
0.46990288
0.46862309
0.46736729
0.4661349
0.46492532
0.463738
0.46257241
0.461428
0.46030428
0.45920076
0.45811696
0.45705241
0.45600667
0.45497931
0.45396991
0.45297805
0.45200335
0.45104542
0.45010388
0.44917837
0.44826855
0.44737407
0.44649459
0.44562981
0.4447794
0.44394305
0.44312048
0.4423114
0.44151551
0.44073256
0.43996228
0.43920439
0.43845867
0.43772485
0.43700271
0.436292
0.4355925
0.434904
0.43422626
0.4335591
0.43290229
0.43225564
0.43161896
0.43099206
0.43037474
0.42976683
0.42916816
0.42857854
0.42799782
0.42742582
0.42686239
0.42630737
0.4257606
0.42522195
0.42469125
0.42416837
0.42365317
0.4231455
0.42264525
0.42215227
0.42166645
0.42118764
0.42071574
0.42025063
0.41979218
0.41934028
0.41889482
0.41845569
0.41802278
0.417596
0.41717522
0.41676037
0.41635132
0.415948
0.4155503
0.41515814
0.41477142
0.41439005
0.41401394
0.41364301
0.41327718
0.41291637
0.41256049
0.41220946
0.41186323
0.41152178
0.41118535
0.41085544
0.41053988
0.41027916
1.2407212
1.2301168
1.2143946
1.1945555
1.1719474
1.1477612
1.1228892
1.0979617
1.0733992
1.0494682
1.0263296
1.0040733
0.98273381
0.96223208
0.94258268
0.92384963
0.90604208
0.88912293
0.87304748
0.85776775
0.84323525
0.82940264
0.81622473
0.80365902
0.79166584
0.78020845
0.7692529
0.75876793
0.74872469
0.73909665
0.72985935
0.7209902
0.71246837
0.70427455
0.69639086
0.68880063
0.6814881
0.67443889
0.66763969
0.66107812
0.65474261
0.6486223
0.64270702
0.63698717
0.63145377
0.62609832
0.62091285
0.6158898
0.61102209
0.60630296
0.60172591
0.59728354
0.5929706
0.58878227
0.58471383
0.58076068
0.5769184
0.57318272
0.56954958
0.56601508
0.56257552
0.55922735
0.55596719
0.55279186
0.54969859
0.54668435
0.54374622
0.54088146
0.53808747
0.53536179
0.53270206
0.53010607
0.52757168
0.52509688
0.52267971
0.52031833
0.51801096
0.51575589
0.51355151
0.51139625
0.5092886
0.50722713
0.50521047
0.50323727
0.50130627
0.49941624
0.497566
0.49575442
0.4939804
0.49224289
0.49054088
0.48887339
0.48723947
0.48563824
0.4840688
0.48253031
0.48102196
0.47954296
0.47809255
0.47667
0.4752746
0.47390566
0.47256251
0.47124452
0.46995107
0.46868155
0.46743539
0.46621201
0.46501088
0.46383147
0.46267326
0.46153576
0.46041849
0.45932098
0.45824278
0.45718344
0.45614255
0.45511968
0.45411445
0.45312645
0.45215531
0.45120065
0.45026213
0.4493394
0.44843211
0.44753993
0.44666256
0.44579967
0.44495096
0.44411614
0.44329493
0.44248703
0.44169219
0.44091014
0.44014061
0.43938336
0.43863814
0.43790472
0.43718286
0.43647233
0.43577292
0.4350844
0.43440658
0.43373923
0.43308217
0.43243519
0.43179811
0.43117074
0.4305529
0.42994441
0.4293451
0.4287548
0.42817334
0.42760056
0.4270363
0.42648042
0.42593276
0.42539316
0.4248615
0.42433762
0.42382139
0.42331268
0.42281134
0.42231727
0.42183032
0.42135038
0.42087732
0.42041102
0.41995138
0.41949828
0.4190516
0.41861124
0.4181771
0.41774906
0.41732703
0.41691091
0.41650059
0.41609599
0.41569701
0.41530356
0.41491555
0.41453289
0.41415549
0.41378327
0.41341615
0.41305404
0.41269687
0.41234455
0.41199702
0.41165418
0.41131598
0.41098234
0.41065318
0.41032844
0.41000807
0.40969205
0.4093806
0.40907515
0.40878297
0.40854172
1.2190985
1.18159
1.1380654
1.0935486
1.0512066
1.0124332
0.97758711
0.94651736
0.91885368
0.89416348
0.87202865
0.85207721
0.8339943
0.81753671
0.80249222
0.78865211
0.7758486
0.76394405
0.75282491
0.74239681
0.73258072
0.72330995
0.71452779
0.70618574
0.69824206
0.69066061
0.68341
0.6764628
0.66979497
0.66338533
0.65721515
0.65126784
0.64552861
0.63998424
0.63462287
0.62943364
0.62440488
0.61952925
0.61479944
0.61020847
0.60574982
0.60141738
0.59720553
0.59310901
0.58912296
0.58524285
0.58146444
0.57778378
0.57419716
0.5707011
0.56729245
0.56396928
0.5607282
0.55756595
0.55447962
0.55146655
0.54852427
0.54565046
0.54284293
0.5400996
0.53741847
0.53479766
0.53223534
0.5297298
0.52727941
0.52488257
0.52253776
0.52024348
0.51799829
0.51580081
0.51364969
0.51154365
0.50948146
0.50746192
0.50548386
0.50354619
0.50164783
0.49978774
0.49796492
0.4961784
0.49442724
0.49271055
0.49102743
0.48937705
0.48775859
0.48617124
0.48461423
0.48308683
0.48158831
0.48011796
0.47867512
0.4772591
0.47586929
0.47450505
0.47316579
0.47185092
0.47055988
0.4692921
0.46804707
0.46682426
0.46562316
0.46444328
0.46328415
0.46214531
0.46102631
0.4599267
0.45884606
0.45778399
0.45674007
0.45571392
0.45470515
0.4537134
0.4527383
0.4517795
0.45083667
0.44990946
0.44899756
0.44810065
0.44721842
0.44635057
0.44549681
0.44465685
0.44383043
0.44301726
0.44221709
0.44142965
0.44065471
0.439892
0.4391413
0.43840237
0.43767498
0.43695892
0.43625397
0.43555991
0.43487653
0.43420365
0.43354106
0.43288857
0.43224599
0.43161315
0.43098985
0.43037593
0.42977121
0.42917553
0.42858872
0.42801063
0.4274411
0.42687997
0.4263271
0.42578234
0.42524555
0.42471658
0.42419531
0.4236816
0.42317531
0.42267632
0.4221845
0.42169974
0.42122191
0.42075088
0.42028656
0.41982882
0.41937756
0.41893266
0.41849402
0.41806154
0.41763511
0.41721464
0.41680003
0.41639117
0.41598799
0.41559038
0.41519826
0.41481153
0.41443012
0.41405393
0.41368289
0.41331691
0.4129559
0.41259981
0.41224853
0.41190201
0.41156017
0.41122292
0.41089021
0.41056197
0.41023811
0.40991858
0.40960332
0.40929224
0.4089853
0.40868243
0.40838356
0.40808864
0.40779762
0.4075105
0.40722748
0.40694988
0.40668439
0.40646541
1.1656964
1.0880325
1.0196661
0.96306111
0.91702672
0.87951879
0.8486237
0.82280824
0.80090704
0.78204917
0.7655863
0.75103513
0.7380371
0.72636136
0.71576737
0.70606669
0.69711582
0.68880234
0.68103634
0.67374488
0.66686808
0.66035629
0.65416799
0.64826817
0.64262717
0.63721966
0.63202392
0.62702124
0.62219543
0.61753244
0.61301999
0.60864736
0.60440512
0.60028497
0.59627959
0.5923827
0.58859069
0.5848968
0.58129571
0.57778286
0.57435426
0.57100634
0.56773588
0.56453995
0.56141584
0.55836109
0.55537339
0.5524506
0.54959072
0.54679188
0.54405238
0.54137086
0.53874579
0.53617557
0.53365864
0.5311935
0.52877873
0.52641297
0.52409493
0.5218234
0.51959718
0.51741516
0.51527626
0.51317943
0.51112367
0.50910802
0.50713155
0.50519332
0.50329246
0.50142807
0.49959932
0.49780538
0.49604543
0.4943187
0.49262442
0.49096184
0.48933024
0.48772893
0.48615721
0.48461442
0.4830999
0.48161303
0.48015319
0.47871978
0.47731222
0.47592993
0.47457236
0.47323897
0.47192924
0.47064265
0.46937869
0.46813689
0.46691677
0.46571785
0.4645397
0.46338187
0.46224392
0.46112545
0.46002604
0.4589453
0.45788283
0.45683826
0.45581121
0.45480134
0.45380827
0.45283169
0.45187124
0.4509266
0.44999746
0.4490835
0.44818441
0.44729992
0.44642972
0.44557353
0.44473108
0.4439021
0.44308632
0.4422835
0.44149338
0.44071572
0.43995027
0.43919681
0.43845511
0.43772495
0.4370061
0.43629837
0.43560153
0.43491539
0.43423974
0.43357441
0.43291918
0.43227389
0.43163835
0.43101239
0.43039582
0.42978849
0.42919022
0.42860086
0.42802024
0.42744821
0.42688462
0.42632932
0.42578217
0.42524303
0.42471174
0.42418819
0.42367223
0.42316374
0.42266258
0.42216864
0.42168178
0.4212019
0.42072886
0.42026257
0.41980289
0.41934973
0.41890298
0.41846252
0.41802826
0.41760009
0.41717792
0.41676164
0.41635115
0.41594638
0.41554722
0.41515357
0.41476537
0.41438251
0.41400491
0.41363248
0.41326516
0.41290285
0.41254547
0.41219296
0.41184522
0.4115022
0.41116381
0.41082998
0.41050065
0.41017574
0.40985518
0.40953892
0.40922688
0.408919
0.40861521
0.40831547
0.40801969
0.40772783
0.40743983
0.40715562
0.40687515
0.40659837
0.40632523
0.40605566
0.40578963
0.40552713
0.40526837
0.4050146
0.40477204
0.4045724
1.08231
0.97829437
0.90666544
0.85483432
0.81579439
0.78544625
0.76119857
0.74135695
0.72476946
0.71062991
0.69836509
0.68756302
0.67792655
0.66925245
0.66136996
0.65414042
0.64745476
0.64122728
0.63538999
0.62988833
0.624678
0.61972264
0.61499212
0.61046128
0.60610895
0.60191721
0.59787081
0.5939567
0.59016369
0.58648214
0.5829037
0.57942114
0.57602814
0.57271922
0.56948959
0.5663352
0.56325339
0.56024053
0.5572932
0.55440845
0.5515837
0.54881666
0.54610535
0.54344793
0.54084278
0.53828838
0.53578335
0.53332641
0.53091635
0.52855204
0.52623246
0.52395678
0.52172413
0.51953356
0.51738411
0.51527483
0.51320481
0.51117316
0.50917903
0.50722161
0.50530013
0.50341383
0.50156197
0.49974386
0.49795881
0.49620616
0.49448526
0.49279548
0.49113617
0.48950674
0.48790656
0.48633504
0.4847916
0.48327566
0.48178666
0.48032404
0.47888728
0.47747584
0.4760892
0.47472686
0.47338833
0.47207311
0.47078075
0.46951076
0.46826271
0.46703613
0.46583061
0.46464572
0.46348103
0.46233615
0.46121067
0.4601042
0.45901638
0.45794681
0.45689514
0.45586102
0.45484408
0.45384401
0.45286045
0.45189309
0.4509416
0.45000568
0.44908503
0.44817933
0.44728832
0.44641169
0.44554917
0.44470049
0.44386539
0.4430436
0.44223488
0.44143896
0.44065562
0.43988461
0.4391257
0.43837867
0.43764329
0.43691934
0.43620662
0.43550491
0.43481402
0.43413374
0.43346388
0.43280425
0.43215466
0.43151494
0.4308849
0.43026438
0.42965319
0.42905118
0.42845818
0.42787403
0.42729857
0.42673166
0.42617314
0.42562286
0.42508069
0.42454648
0.42402009
0.42350139
0.42299025
0.42248653
0.42199012
0.42150088
0.4210187
0.42054345
0.42007502
0.4196133
0.41915817
0.41870953
0.41826726
0.41783125
0.41740142
0.41697765
0.41655985
0.41614791
0.41574175
0.41534127
0.41494637
0.41455697
0.41417298
0.41379431
0.41342087
0.41305259
0.41268939
0.41233117
0.41197786
0.41162939
0.41128568
0.41094666
0.41061224
0.41028237
0.40995696
0.40963596
0.40931929
0.40900689
0.40869869
0.40839462
0.40809463
0.40779865
0.40750663
0.40721849
0.40693419
0.40665367
0.40637687
0.40610373
0.4058342
0.40556822
0.40530575
0.40504673
0.40479112
0.40453885
0.40428988
0.40404418
0.40380169
0.40356242
0.40332656
0.40309528
0.40287438
0.40269277
0.98384394
0.87853709
0.81301473
0.76726273
0.73365656
0.70796204
0.68780749
0.67169396
0.65855845
0.64762973
0.63834788
0.63030728
0.62321691
0.61687723
0.61113468
0.6058709
0.6009958
0.59644097
0.592154
0.58809412
0.58422917
0.5805334
0.57698589
0.57356947
0.57026992
0.56707532
0.56397565
0.56096242
0.55802841
0.55516746
0.55237429
0.54964436
0.54697375
0.54435909
0.54179749
0.53928655
0.53682477
0.53441008
0.53204045
0.52971409
0.52742948
0.52518529
0.52298037
0.52081371
0.51868439
0.51659157
0.51453449
0.51251245
0.51052478
0.50857087
0.50665015
0.50476219
0.50290653
0.50108265
0.49928998
0.49752795
0.49579599
0.49409355
0.49242011
0.49077515
0.48915817
0.4875687
0.48600624
0.48447036
0.48296059
0.48147651
0.48001767
0.47858364
0.47717399
0.4757883
0.47442614
0.47308709
0.47177073
0.47047666
0.46920448
0.46795377
0.46672415
0.46551523
0.46432663
0.46315798
0.46200889
0.46087902
0.45976801
0.45867549
0.45760114
0.4565446
0.45550555
0.45448365
0.4534786
0.45249006
0.45151774
0.45056132
0.44962051
0.44869502
0.44778456
0.44688884
0.4460076
0.44514056
0.44428746
0.44344803
0.44262202
0.44180919
0.44100928
0.44022206
0.4394473
0.43868475
0.43793421
0.43719544
0.43646823
0.43575236
0.43504764
0.43435386
0.43367082
0.43299832
0.43233618
0.4316842
0.43104221
0.43041002
0.42978747
0.42917437
0.42857056
0.42797587
0.42739015
0.42681323
0.42624497
0.4256852
0.42513378
0.42459057
0.42405542
0.4235282
0.42300876
0.42249697
0.4219927
0.42149583
0.42100622
0.42052375
0.4200483
0.41957976
0.419118
0.41866291
0.41821439
0.41777231
0.41733658
0.41690709
0.41648373
0.41606641
0.41565502
0.41524947
0.41484966
0.4144555
0.41406689
0.41368375
0.41330599
0.41293352
0.41256625
0.41220411
0.41184701
0.41149487
0.41114761
0.41080515
0.41046743
0.41013436
0.40980587
0.40948188
0.40916234
0.40884717
0.40853629
0.40822966
0.40792719
0.40762883
0.40733451
0.40704417
0.40675775
0.40647519
0.40619644
0.40592143
0.4056501
0.40538241
0.40511829
0.4048577
0.40460058
0.40434688
0.40409655
0.40384953
0.40360579
0.40336527
0.40312792
0.4028937
0.40266256
0.40243446
0.40220935
0.40198719
0.40176794
0.40155155
0.401338
0.40112728
0.4009196
0.4007158
0.40052178
0.40035993
)
;

boundaryField
{
    exteriorWall
    {
        type            calculated;
        value           nonuniform List<scalar> 
200
(
0.3843458
0.38432098
0.38431452
0.38430903
0.38430301
0.38429742
0.38429224
0.38428738
0.38428278
0.3842784
0.38427419
0.38427011
0.38426613
0.38426223
0.38425839
0.3842546
0.38425087
0.38424717
0.38424352
0.38423991
0.38423633
0.38423279
0.38422929
0.38422582
0.38422239
0.38421899
0.38421563
0.3842123
0.38420901
0.38420575
0.38420253
0.38419934
0.38419618
0.38419305
0.38418996
0.3841869
0.38418387
0.38418087
0.3841779
0.38417496
0.38417205
0.38416917
0.38416631
0.38416349
0.38416069
0.38415792
0.38415518
0.38415246
0.38414977
0.3841471
0.38414446
0.38414184
0.38413925
0.38413668
0.38413413
0.38413161
0.38412911
0.38412663
0.38412417
0.38412174
0.38411932
0.38411693
0.38411456
0.38411221
0.38410988
0.38410756
0.38410527
0.384103
0.38410074
0.38409851
0.38409629
0.38409409
0.38409191
0.38408975
0.3840876
0.38408547
0.38408336
0.38408126
0.38407918
0.38407712
0.38407507
0.38407304
0.38407103
0.38406903
0.38406704
0.38406507
0.38406311
0.38406117
0.38405925
0.38405733
0.38405544
0.38405355
0.38405168
0.38404982
0.38404798
0.38404615
0.38404433
0.38404252
0.38404073
0.38403895
0.38403718
0.38403542
0.38403368
0.38403195
0.38403023
0.38402852
0.38402682
0.38402513
0.38402346
0.38402179
0.38402014
0.3840185
0.38401686
0.38401524
0.38401363
0.38401203
0.38401044
0.38400886
0.38400728
0.38400572
0.38400417
0.38400263
0.38400109
0.38399957
0.38399805
0.38399655
0.38399505
0.38399356
0.38399208
0.38399061
0.38398915
0.3839877
0.38398625
0.38398482
0.38398339
0.38398197
0.38398055
0.38397915
0.38397775
0.38397636
0.38397498
0.38397361
0.38397224
0.38397088
0.38396953
0.38396818
0.38396685
0.38396552
0.38396419
0.38396288
0.38396157
0.38396026
0.38395897
0.38395768
0.38395639
0.38395512
0.38395385
0.38395258
0.38395133
0.38395007
0.38394883
0.38394759
0.38394636
0.38394513
0.38394391
0.38394269
0.38394149
0.38394028
0.38393908
0.38393789
0.38393671
0.38393552
0.38393435
0.38393318
0.38393201
0.38393085
0.3839297
0.38392855
0.38392741
0.38392627
0.38392513
0.38392401
0.38392288
0.38392176
0.38392065
0.38391954
0.38391844
0.38391734
0.38391624
0.38391515
0.38391406
0.38391298
0.38391191
0.38391083
0.38390977
0.3839087
0.38390764
0.38390659
0.38390555
0.38390447
)
;
    }
    inlet
    {
        type            calculated;
        value           nonuniform List<scalar> 6(1.2464909 1.2465008 1.2465192 1.2465383 1.2465524 1.2465615);
    }
    outlet
    {
        type            calculated;
        value           nonuniform List<scalar> 6(0.41027846 0.40854109 0.4064649 0.40457193 0.40269229 0.40035945);
    }
    walls
    {
        type            calculated;
        value           nonuniform List<scalar> 0();
    }
    frontAndBack
    {
        type            empty;
    }
    frontAndBack_pos
    {
        type            wedge;
    }
    frontAndBack_neg
    {
        type            wedge;
    }
}


// ************************************************************************* //
