/*--------------------------------*- C++ -*----------------------------------*\
  =========                 |
  \\      /  F ield         | OpenFOAM: The Open Source CFD Toolbox
   \\    /   O peration     | Website:  https://openfoam.org
    \\  /    A nd           | Version:  10
     \\/     M anipulation  |
\*---------------------------------------------------------------------------*/
FoamFile
{
    format      ascii;
    class       volScalarField;
    location    "800/FLUID";
    object      T;
}
// * * * * * * * * * * * * * * * * * * * * * * * * * * * * * * * * * * * * * //

dimensions      [0 0 0 1 0 0 0];

internalField   nonuniform List<scalar> 
1200
(
300.24004
300.78365
301.77196
303.26896
305.28787
307.81088
310.80842
314.24718
318.09423
322.3189
326.89291
331.79006
336.98625
342.46183
348.19883
354.19679
360.44306
366.90557
373.55377
380.3588
387.29363
394.33313
401.45406
408.63504
415.85651
423.1007
430.3515
437.59438
444.81635
452.00582
459.15253
466.24745
473.28268
480.25137
487.14763
493.96649
500.70376
507.35601
513.92045
520.39484
526.77749
533.06713
539.26294
545.36442
551.37144
557.2841
563.10278
568.82806
574.4607
580.00164
585.45198
590.81308
596.08634
601.27313
606.37481
611.39279
616.32846
621.18325
625.95859
630.65592
635.27668
639.82233
644.29431
648.69417
653.02406
657.28529
661.47902
665.60645
669.66878
673.66721
677.60296
681.47723
685.2912
689.04606
692.74296
696.38303
699.96739
703.49714
706.97333
710.39703
713.76923
717.09096
720.36317
723.58682
726.76283
729.8921
732.97553
736.01396
739.00823
741.95917
744.86755
747.73417
750.55977
753.34509
756.09086
758.79777
761.46651
764.09775
766.69213
769.2503
771.77287
774.26046
776.71365
779.13302
781.51914
783.87256
786.19382
788.48346
790.74198
792.96989
795.16768
797.33585
799.47486
801.58518
803.66726
805.72154
807.74847
809.74846
811.72193
813.6693
815.59097
817.48733
819.35876
821.20564
823.02835
824.82724
826.60269
828.35502
830.0846
831.79175
833.47682
835.14011
836.78196
838.40268
840.00256
841.58193
843.14107
844.68027
846.19983
847.70001
849.18111
850.6434
852.08713
853.51257
854.91999
856.30963
857.68175
859.03659
860.37439
861.69539
862.99983
864.28793
865.55992
866.81602
868.05646
869.28144
870.49118
871.68588
872.86576
874.03101
875.18184
876.31844
877.44099
878.5497
879.64475
880.72631
881.79458
882.84973
883.89194
884.92137
885.93821
886.9426
887.93473
888.91476
889.88283
890.83912
891.78377
892.71694
893.63877
894.54943
895.44905
896.33777
897.21575
898.08311
898.94
899.78656
900.62291
901.44919
902.26552
903.07205
903.86888
904.65616
905.43399
906.2025
906.96177
907.71178
908.45198
909.17898
909.8753
910.45139
301.39747
303.99205
307.92279
313.03216
319.06622
325.78504
332.99655
340.55223
348.34069
356.27961
364.30771
372.3788
380.46069
388.56286
396.65888
404.6979
412.64782
420.496
428.23448
435.85863
443.36615
450.75634
458.02957
465.18694
472.22996
479.16043
485.98027
492.69148
499.29606
505.79598
512.19318
518.48953
524.68687
530.78698
536.79158
542.70242
548.52142
554.25023
559.89036
565.44325
570.91035
576.29306
581.59278
586.81089
591.94879
597.00783
601.98937
606.89475
611.72531
616.48236
621.16739
625.78314
630.33048
634.81012
639.22289
643.56976
647.85174
652.06986
656.2252
660.31884
664.35183
668.32523
672.2401
676.09742
679.89784
683.64247
687.33242
690.96876
694.55251
698.08462
701.56604
704.99766
708.38035
711.71497
715.00235
718.24329
721.43859
724.58902
727.69533
730.75825
733.77852
736.75684
739.6939
742.59037
745.44693
748.26422
751.04288
753.78353
756.48678
759.15323
761.78348
764.37808
766.93761
769.46263
771.95366
774.41124
776.8359
779.22814
781.58847
783.91737
786.21532
788.48281
790.72029
792.92822
795.10705
797.25721
799.37913
801.47324
803.53995
805.57967
807.5928
809.57972
811.54084
813.47651
815.38713
817.27305
819.13462
820.97222
822.78617
824.57683
826.34452
828.08957
829.81232
831.51307
833.19214
834.84984
836.48647
838.10233
839.6977
841.27288
842.82816
844.3638
845.88008
847.37727
848.85563
850.31544
851.75693
853.18037
854.586
855.97407
857.34482
858.69849
860.0353
861.35549
862.65928
863.9469
865.21856
866.47448
867.71488
868.93996
870.14992
871.34497
872.52531
873.69114
874.84265
875.98003
877.10346
878.21314
879.30924
880.39195
881.46144
882.51788
883.56146
884.59232
885.61066
886.61661
887.61036
888.59206
889.56185
890.51991
891.46639
892.40142
893.32516
894.23776
895.13936
896.03011
896.91013
897.77957
898.63857
899.48725
900.32576
901.15421
901.97275
902.78149
903.58055
904.37007
905.15016
905.92095
906.68255
907.43507
908.17863
908.91335
909.63934
910.35669
911.0655
911.76573
912.45686
913.13569
913.78583
914.32321
306.74779
316.47759
328.57473
341.9452
355.71304
369.33035
382.48984
395.04005
406.9284
418.15986
428.76927
438.80418
448.31374
457.33392
465.90296
474.07442
481.89317
489.3978
496.62141
503.59247
510.33551
516.87179
523.21981
529.39573
535.41372
541.28622
547.02418
552.63727
558.13401
563.52194
568.80771
573.99723
579.09574
584.10786
589.03774
593.8892
598.66747
603.37421
608.01143
612.58118
617.08544
621.52608
625.90481
630.22321
634.48273
638.68469
642.83033
646.92078
650.9571
654.94025
658.87101
662.74887
666.57514
670.35116
674.07799
677.75652
681.38757
684.97185
688.51006
692.00283
695.45079
698.85454
702.21467
705.53172
708.80619
712.03861
715.22951
718.37943
721.48891
724.55848
727.58866
730.57997
733.53293
736.44802
739.32574
742.16659
744.97104
747.73956
750.47263
753.17071
755.83425
758.46371
761.05953
763.62216
766.15203
768.64957
771.11522
773.54938
775.95248
778.32494
780.66715
782.97952
785.26245
787.51633
789.74154
791.93847
794.10751
796.24901
798.36335
800.4509
802.51201
804.54704
806.55634
808.54025
810.49911
812.43326
814.34303
816.22875
818.09074
819.92932
821.7448
823.5375
825.30771
827.05573
828.78188
830.48643
832.16967
833.8319
835.47339
837.09442
838.69525
840.27616
841.83742
843.37929
844.90201
846.40585
847.89106
849.35788
850.80656
852.23734
853.65045
855.04612
856.42459
857.78609
859.13083
860.45903
861.77092
863.0667
864.34659
865.6108
866.85953
868.09298
869.31135
870.51485
871.70365
872.87796
874.03796
875.18383
876.31577
877.43395
878.53855
879.62974
880.7077
881.7726
882.8246
883.86388
884.89059
885.9049
886.90696
887.89694
888.87499
889.84126
890.7959
891.73906
892.67088
893.59151
894.5011
895.39978
896.28768
897.16496
898.03174
898.88815
899.73432
900.57039
901.39648
902.21272
903.01922
903.81612
904.60353
905.38157
906.15036
906.91002
907.66065
908.40237
909.13529
909.85952
910.57517
911.28235
911.98115
912.67169
913.35407
914.02838
914.69473
915.3532
916.00389
916.64674
917.28127
917.90447
918.50116
918.99351
320.80522
343.69034
366.72678
388.27561
407.76046
425.14354
440.61537
454.4338
466.85487
478.10683
488.38244
497.83943
506.60191
514.73991
522.35328
529.52469
536.31848
542.78634
548.97062
554.90651
560.62353
566.14664
571.49706
576.69298
581.75002
586.68162
591.49944
596.21355
600.83269
605.36445
609.81543
614.19135
618.4972
622.73728
626.91534
631.03437
635.09482
639.10074
643.05496
646.95971
650.8168
654.62775
658.39386
662.11625
665.79587
669.43356
673.03006
676.586
680.10195
683.57842
687.01576
690.41399
693.77338
697.0944
700.37751
703.62317
706.8318
710.00381
713.13954
716.23936
719.30356
722.33248
725.32639
728.28559
731.21034
734.10091
736.95757
739.7806
742.57029
745.32694
748.05084
750.7423
753.40162
756.02911
758.62508
761.18985
763.72371
766.227
768.70001
771.14306
773.55646
775.94054
778.29559
780.62194
782.9199
785.18978
787.4319
789.64655
791.83407
793.99475
796.1289
798.23683
800.31885
802.37525
804.40635
806.41245
808.39383
810.3508
812.28365
814.19268
816.07817
817.94041
819.77969
821.59629
823.39048
825.16255
826.91277
828.64142
830.34875
832.03505
833.70056
835.34556
836.9703
838.57503
840.16001
841.72548
843.2717
844.79891
846.30734
847.79724
849.26885
850.72238
852.15808
853.57617
854.97687
856.36041
857.727
859.07685
860.4102
861.72723
863.02816
864.3132
865.58255
866.83641
868.07497
869.29843
870.50698
871.70081
872.88012
874.04508
875.19587
876.33269
877.45569
878.56507
879.66099
880.74363
881.81315
882.86972
883.9135
884.94466
885.96335
886.96974
887.96398
888.94623
889.91663
890.87533
891.82249
892.75825
893.68275
894.59613
895.49854
896.39011
897.27098
898.14129
899.00116
899.85072
900.69012
901.51947
902.3389
903.14853
903.94849
904.7389
905.51988
906.29153
907.05399
907.80736
908.55176
909.2873
910.01408
910.73222
911.44183
912.143
912.83585
913.52047
914.19698
914.86545
915.52601
916.17874
916.82374
917.4611
918.09093
918.7133
919.32832
919.93607
920.53661
921.12991
921.71549
922.29048
922.84066
923.29343
345.5255
382.24157
412.43225
437.4329
458.35913
476.06234
491.22052
504.36114
515.89807
526.15701
535.39161
543.79719
551.52135
558.66387
565.31662
571.55885
577.45519
583.05772
588.40864
593.54242
598.48748
603.26748
607.90227
612.40859
616.80065
621.09054
625.28863
629.40376
633.44353
637.41447
641.32217
645.17143
648.96637
652.71051
656.40681
660.05762
663.66385
667.22769
670.75123
674.23619
677.68394
681.09559
684.47203
687.81398
691.12204
694.39668
697.63831
700.84725
704.02378
707.16809
710.28033
713.36039
716.40829
719.42416
722.40819
725.3606
728.28162
731.17145
734.03028
736.8583
739.65567
742.42255
745.15911
747.86548
750.54183
753.18828
755.805
758.39215
760.94991
763.47847
765.97801
768.44875
770.8909
773.30468
775.69031
778.04801
780.37803
782.6806
784.95595
787.20433
789.42599
791.62118
793.79013
795.93312
798.05039
800.14219
802.20879
804.25044
806.26741
808.25994
810.22831
812.17277
814.09358
815.99101
817.8653
819.71673
821.54555
823.35201
825.13638
826.8989
828.63984
830.35944
832.05796
833.73564
835.39274
837.02949
838.64615
840.24295
841.82014
843.37795
844.91662
846.43638
847.93746
849.4201
850.88452
852.33095
853.7596
855.1707
856.56447
857.94112
859.30086
860.64391
861.97048
863.28077
864.57498
865.85332
867.11598
868.36317
869.59507
870.81189
872.0138
873.201
874.37368
875.532
876.67617
877.80635
878.92273
880.02547
881.11475
882.19073
883.2536
884.3035
885.34062
886.3651
887.3771
888.3768
889.36433
890.33986
891.30353
892.2555
893.19592
894.12492
895.04265
895.94927
896.84489
897.72967
898.60375
899.46725
900.3203
901.16305
901.99562
902.81814
903.63073
904.43353
905.22664
906.0102
906.78432
907.54913
908.30473
909.05125
909.78879
910.51748
911.23741
911.9487
912.65146
913.3458
914.03181
914.7096
915.37927
916.04093
916.69468
917.3406
917.9788
918.60938
919.23242
919.84803
920.45629
921.05729
921.65113
922.23788
922.81765
923.39051
923.95655
924.51584
925.06846
925.61436
926.15309
926.68193
927.18751
927.60305
380.10953
425.64431
459.94004
487.35938
509.67558
528.16587
543.63519
556.66962
567.76608
577.34052
585.72888
593.19451
599.9371
606.09653
611.78562
617.09471
622.09435
626.83906
631.37115
635.72381
639.92346
643.99138
647.94495
651.79849
655.56391
659.25118
662.8687
666.42355
669.92174
673.36834
676.76766
680.12334
683.43843
686.71553
689.95674
693.16369
696.33691
699.47779
702.58774
705.66791
708.71921
711.74233
714.73776
717.7059
720.64701
723.56128
726.44884
729.30978
732.14413
734.9519
737.73305
740.48734
743.21462
745.91484
748.58804
751.23429
753.85366
756.44624
759.01209
761.55129
764.0639
766.54998
769.0096
771.44281
773.8497
776.23031
778.58474
780.91307
783.21542
785.49189
787.74263
789.96777
792.16747
794.34189
796.4912
798.61556
800.71517
802.79021
804.84086
806.86733
808.86981
810.84851
812.80364
814.7354
816.64402
818.5297
820.39266
822.23314
824.05134
825.8475
827.62184
829.37458
831.10596
832.81619
834.50551
836.17415
837.82234
839.45029
841.05824
842.64642
844.21505
845.76436
847.29457
848.8059
850.29857
851.77281
853.22884
854.66687
856.08711
857.48979
858.87511
860.24329
861.59453
862.92904
864.24703
865.54871
866.83426
868.10389
869.3578
870.59619
871.81924
873.02715
874.22011
875.39831
876.56192
877.71114
878.84614
879.96711
881.07421
882.16763
883.24754
884.31411
885.3675
886.40789
887.43544
888.45031
889.45266
890.44265
891.42044
892.38618
893.34003
894.28214
895.21265
896.13171
897.03948
897.93608
898.82167
899.69638
900.56036
901.41374
902.25664
903.08922
903.91159
904.72389
905.52625
906.31879
907.10163
907.8749
908.63873
909.39322
910.1385
910.87469
911.6019
912.32025
913.02984
913.73079
914.4232
915.10719
915.78286
916.45032
917.10966
917.761
918.40443
919.04005
919.66796
920.28826
920.90104
921.50639
922.10442
922.6952
923.27884
923.85542
924.42503
924.98776
925.54368
926.0929
926.63549
927.17153
927.7011
928.22429
928.74118
929.25183
929.75634
930.25476
930.74716
931.23352
931.71335
932.18464
932.63367
933.00808
)
;

boundaryField
{
    exteriorWall
    {
        type            fixedValue;
        value           uniform 973;
    }
    inlet
    {
        type            fixedValue;
        value           uniform 300;
    }
    outlet
    {
        type            zeroGradient;
    }
    walls
    {
        type            fixedValue;
        value           nonuniform List<scalar> 0();
    }
    frontAndBack
    {
        type            empty;
    }
    frontAndBack_pos
    {
        type            wedge;
    }
    frontAndBack_neg
    {
        type            wedge;
    }
}


// ************************************************************************* //
