/*--------------------------------*- C++ -*----------------------------------*\
  =========                 |
  \\      /  F ield         | OpenFOAM: The Open Source CFD Toolbox
   \\    /   O peration     | Website:  https://openfoam.org
    \\  /    A nd           | Version:  10
     \\/     M anipulation  |
\*---------------------------------------------------------------------------*/
FoamFile
{
    format      ascii;
    class       volScalarField;
    location    "5000/FLUID";
    object      Bi;
}
// * * * * * * * * * * * * * * * * * * * * * * * * * * * * * * * * * * * * * //

dimensions      [0 0 0 0 0 0 0];

internalField   nonuniform List<scalar> 
200
(
1.6373689
1.631853
1.6383294
1.6457349
1.6518451
1.6577591
1.6636046
1.6692857
1.6748056
1.6801793
1.6854124
1.6905096
1.6954763
1.7003174
1.7050377
1.7096418
1.7141338
1.7185179
1.7227979
1.7269775
1.7310604
1.7350497
1.7389488
1.7427607
1.7464882
1.7501343
1.7537015
1.7571925
1.7606095
1.7639551
1.7672313
1.7704404
1.7735844
1.7766652
1.7796848
1.7826449
1.7855472
1.7883934
1.7911852
1.7939239
1.7966112
1.7992484
1.8018369
1.804378
1.8068729
1.8093228
1.811729
1.8140926
1.8164146
1.818696
1.820938
1.8231414
1.8253072
1.8274364
1.8295297
1.831588
1.8336122
1.835603
1.8375612
1.8394876
1.8413828
1.8432476
1.8450826
1.8468885
1.8486659
1.8504155
1.8521377
1.8538332
1.8555026
1.8571464
1.858765
1.8603591
1.8619291
1.8634756
1.8649989
1.8664995
1.8679779
1.8694345
1.8708697
1.872284
1.8736776
1.8750511
1.8764048
1.877739
1.8790542
1.8803506
1.8816286
1.8828886
1.8841308
1.8853555
1.8865632
1.887754
1.8889283
1.8900864
1.8912285
1.8923549
1.8934659
1.8945617
1.8956427
1.8967089
1.8977608
1.8987985
1.8998222
1.9008322
1.9018287
1.902812
1.9037821
1.9047395
1.9056841
1.9066164
1.9075363
1.9084443
1.9093403
1.9102246
1.9110975
1.911959
1.9128094
1.9136487
1.9144773
1.9152952
1.9161025
1.9168996
1.9176865
1.9184633
1.9192302
1.9199874
1.9207351
1.9214732
1.9222021
1.9229217
1.9236323
1.924334
1.9250269
1.9257111
1.9263868
1.9270541
1.9277131
1.9283639
1.9290066
1.9296414
1.9302683
1.9308875
1.9314991
1.9321031
1.9326998
1.9332891
1.9338712
1.9344462
1.9350142
1.9355753
1.9361295
1.936677
1.9372179
1.9377522
1.9382801
1.9388016
1.9393167
1.9398257
1.9403286
1.9408254
1.9413162
1.9418012
1.9422804
1.9427538
1.9432216
1.9436838
1.9441405
1.9445917
1.9450376
1.9454782
1.9459136
1.9463438
1.9467689
1.947189
1.9476042
1.9480144
1.9484198
1.9488205
1.9492164
1.9496077
1.9499944
1.9503766
1.9507543
1.9511275
1.9514964
1.951861
1.9522214
1.9525775
1.9529295
1.9532775
1.9536213
1.9539612
1.9542971
1.9546291
1.9549574
1.9552813
1.955603
1.9559132
1.9562324
1.9564387
)
;

boundaryField
{
    exteriorWall
    {
        type            calculated;
        value           nonuniform List<scalar> 
200
(
1.6373689
1.631853
1.6383294
1.6457349
1.6518451
1.6577591
1.6636046
1.6692857
1.6748056
1.6801793
1.6854124
1.6905096
1.6954763
1.7003174
1.7050377
1.7096418
1.7141338
1.7185179
1.7227979
1.7269775
1.7310604
1.7350497
1.7389488
1.7427607
1.7464882
1.7501343
1.7537015
1.7571925
1.7606095
1.7639551
1.7672313
1.7704404
1.7735844
1.7766652
1.7796848
1.7826449
1.7855472
1.7883934
1.7911852
1.7939239
1.7966112
1.7992484
1.8018369
1.804378
1.8068729
1.8093228
1.811729
1.8140926
1.8164146
1.818696
1.820938
1.8231414
1.8253072
1.8274364
1.8295297
1.831588
1.8336122
1.835603
1.8375612
1.8394876
1.8413828
1.8432476
1.8450826
1.8468885
1.8486659
1.8504155
1.8521377
1.8538332
1.8555026
1.8571464
1.858765
1.8603591
1.8619291
1.8634756
1.8649989
1.8664995
1.8679779
1.8694345
1.8708697
1.872284
1.8736776
1.8750511
1.8764048
1.877739
1.8790542
1.8803506
1.8816286
1.8828886
1.8841308
1.8853555
1.8865632
1.887754
1.8889283
1.8900864
1.8912285
1.8923549
1.8934659
1.8945617
1.8956427
1.8967089
1.8977608
1.8987985
1.8998222
1.9008322
1.9018287
1.902812
1.9037821
1.9047395
1.9056841
1.9066164
1.9075363
1.9084443
1.9093403
1.9102246
1.9110975
1.911959
1.9128094
1.9136487
1.9144773
1.9152952
1.9161025
1.9168996
1.9176865
1.9184633
1.9192302
1.9199874
1.9207351
1.9214732
1.9222021
1.9229217
1.9236323
1.924334
1.9250269
1.9257111
1.9263868
1.9270541
1.9277131
1.9283639
1.9290066
1.9296414
1.9302683
1.9308875
1.9314991
1.9321031
1.9326998
1.9332891
1.9338712
1.9344462
1.9350142
1.9355753
1.9361295
1.936677
1.9372179
1.9377522
1.9382801
1.9388016
1.9393167
1.9398257
1.9403286
1.9408254
1.9413162
1.9418012
1.9422804
1.9427538
1.9432216
1.9436838
1.9441405
1.9445917
1.9450376
1.9454782
1.9459136
1.9463438
1.9467689
1.947189
1.9476042
1.9480144
1.9484198
1.9488205
1.9492164
1.9496077
1.9499944
1.9503766
1.9507543
1.9511275
1.9514964
1.951861
1.9522214
1.9525775
1.9529295
1.9532775
1.9536213
1.9539612
1.9542971
1.9546291
1.9549574
1.9552813
1.955603
1.9559132
1.9562324
1.9564387
)
;
    }
    inlet
    {
        type            calculated;
        value           uniform 1.618035;
    }
    outlet
    {
        type            calculated;
        value           uniform 1.956482;
    }
    walls
    {
        type            calculated;
        value           nonuniform List<scalar> 
200
(
1.6373689
1.631853
1.6383294
1.6457349
1.6518451
1.6577591
1.6636046
1.6692857
1.6748056
1.6801793
1.6854124
1.6905096
1.6954763
1.7003174
1.7050377
1.7096418
1.7141338
1.7185179
1.7227979
1.7269775
1.7310604
1.7350497
1.7389488
1.7427607
1.7464882
1.7501343
1.7537015
1.7571925
1.7606095
1.7639551
1.7672313
1.7704404
1.7735844
1.7766652
1.7796848
1.7826449
1.7855472
1.7883934
1.7911852
1.7939239
1.7966112
1.7992484
1.8018369
1.804378
1.8068729
1.8093228
1.811729
1.8140926
1.8164146
1.818696
1.820938
1.8231414
1.8253072
1.8274364
1.8295297
1.831588
1.8336122
1.835603
1.8375612
1.8394876
1.8413828
1.8432476
1.8450826
1.8468885
1.8486659
1.8504155
1.8521377
1.8538332
1.8555026
1.8571464
1.858765
1.8603591
1.8619291
1.8634756
1.8649989
1.8664995
1.8679779
1.8694345
1.8708697
1.872284
1.8736776
1.8750511
1.8764048
1.877739
1.8790542
1.8803506
1.8816286
1.8828886
1.8841308
1.8853555
1.8865632
1.887754
1.8889283
1.8900864
1.8912285
1.8923549
1.8934659
1.8945617
1.8956427
1.8967089
1.8977608
1.8987985
1.8998222
1.9008322
1.9018287
1.902812
1.9037821
1.9047395
1.9056841
1.9066164
1.9075363
1.9084443
1.9093403
1.9102246
1.9110975
1.911959
1.9128094
1.9136487
1.9144773
1.9152952
1.9161025
1.9168996
1.9176865
1.9184633
1.9192302
1.9199874
1.9207351
1.9214732
1.9222021
1.9229217
1.9236323
1.924334
1.9250269
1.9257111
1.9263868
1.9270541
1.9277131
1.9283639
1.9290066
1.9296414
1.9302683
1.9308875
1.9314991
1.9321031
1.9326998
1.9332891
1.9338712
1.9344462
1.9350142
1.9355753
1.9361295
1.936677
1.9372179
1.9377522
1.9382801
1.9388016
1.9393167
1.9398257
1.9403286
1.9408254
1.9413162
1.9418012
1.9422804
1.9427538
1.9432216
1.9436838
1.9441405
1.9445917
1.9450376
1.9454782
1.9459136
1.9463438
1.9467689
1.947189
1.9476042
1.9480144
1.9484198
1.9488205
1.9492164
1.9496077
1.9499944
1.9503766
1.9507543
1.9511275
1.9514964
1.951861
1.9522214
1.9525775
1.9529295
1.9532775
1.9536213
1.9539612
1.9542971
1.9546291
1.9549574
1.9552813
1.955603
1.9559132
1.9562324
1.9564387
)
;
    }
    frontAndBack
    {
        type            empty;
    }
}


// ************************************************************************* //
