/*--------------------------------*- C++ -*----------------------------------*\
  =========                 |
  \\      /  F ield         | OpenFOAM: The Open Source CFD Toolbox
   \\    /   O peration     | Website:  https://openfoam.org
    \\  /    A nd           | Version:  10
     \\/     M anipulation  |
\*---------------------------------------------------------------------------*/
FoamFile
{
    format      ascii;
    class       volScalarField;
    location    "5000/FLUID";
    object      Bi;
}
// * * * * * * * * * * * * * * * * * * * * * * * * * * * * * * * * * * * * * //

dimensions      [0 0 0 0 0 0 0];

internalField   nonuniform List<scalar> 
200
(
0.44300894
0.44181619
0.44356219
0.4455317
0.44718011
0.4487772
0.4503543
0.45188805
0.45337934
0.454832
0.4562475
0.45762708
0.45897216
0.46028405
0.46156398
0.46281315
0.46403265
0.46522357
0.4663869
0.46752362
0.46863464
0.46972084
0.47078306
0.47182208
0.47283868
0.47383357
0.47480745
0.47576097
0.47669478
0.47760948
0.47850565
0.47938384
0.48024459
0.48108841
0.48191578
0.48272718
0.48352305
0.48430383
0.48506994
0.48582176
0.4865597
0.48728411
0.48799536
0.48869378
0.48937971
0.49005345
0.49071533
0.49136564
0.49200465
0.49263265
0.49324989
0.49385665
0.49445316
0.49503966
0.49561639
0.49618358
0.49674143
0.49729015
0.49782996
0.49836104
0.4988836
0.4993978
0.49990384
0.50040188
0.5008921
0.50137466
0.50184972
0.50231743
0.50277794
0.5032314
0.50367794
0.50411772
0.50455085
0.50497748
0.50539772
0.5058117
0.50621954
0.50662137
0.50701728
0.50740739
0.50779182
0.50817066
0.50854401
0.50891199
0.50927468
0.50963218
0.50998459
0.51033199
0.51067447
0.51101212
0.51134502
0.51167326
0.51199692
0.51231607
0.51263079
0.51294116
0.51324725
0.51354913
0.51384688
0.51414055
0.51443022
0.51471596
0.51499782
0.51527588
0.51555018
0.5158208
0.5160878
0.51635122
0.51661113
0.51686758
0.51712063
0.51737033
0.51761673
0.51785988
0.51809983
0.51833664
0.51857035
0.51880101
0.51902867
0.51925336
0.51947514
0.51969404
0.51991012
0.52012341
0.52033396
0.52054181
0.52074699
0.52094954
0.52114951
0.52134693
0.52154184
0.52173427
0.52192427
0.52211186
0.52229708
0.52247996
0.52266054
0.52283886
0.52301493
0.5231888
0.5233605
0.52353005
0.52369749
0.52386284
0.52402614
0.52418741
0.52434668
0.52450398
0.52465934
0.52481279
0.52496434
0.52511402
0.52526187
0.5254079
0.52555215
0.52569463
0.52583537
0.52597439
0.52611171
0.52624736
0.52638137
0.52651374
0.52664451
0.5267737
0.52690132
0.52702741
0.52715196
0.52727502
0.52739659
0.52751671
0.52763537
0.52775262
0.52786845
0.5279829
0.52809598
0.52820771
0.52831811
0.52842718
0.52853496
0.52864146
0.52874668
0.52885066
0.5289534
0.52905493
0.52915525
0.52925439
0.52935235
0.52944915
0.52954481
0.52963935
0.52973277
0.52982509
0.52991632
0.53000647
0.5300956
0.53018353
0.53027079
0.53035507
0.53044115
0.53049819
)
;

boundaryField
{
    exteriorWall
    {
        type            calculated;
        value           uniform 0;
    }
    inlet
    {
        type            calculated;
        value           uniform 0;
    }
    outlet
    {
        type            calculated;
        value           uniform 0;
    }
    walls
    {
        type            calculated;
        value           uniform 0;
    }
    frontAndBack
    {
        type            empty;
    }
}


// ************************************************************************* //
