/*--------------------------------*- C++ -*----------------------------------*\
  =========                 |
  \\      /  F ield         | OpenFOAM: The Open Source CFD Toolbox
   \\    /   O peration     | Website:  https://openfoam.org
    \\  /    A nd           | Version:  10
     \\/     M anipulation  |
\*---------------------------------------------------------------------------*/
FoamFile
{
    format      ascii;
    class       volScalarField;
    location    "5000/FLUID";
    object      CpEff;
}
// * * * * * * * * * * * * * * * * * * * * * * * * * * * * * * * * * * * * * //

dimensions      [0 2 -2 -1 0 0 0];

internalField   nonuniform List<scalar> 
200
(
850.35202
850.35302
850.35405
850.35512
850.3562
850.35729
850.3584
850.35951
850.36062
850.36173
850.36284
850.36393
850.36502
850.36609
850.36714
850.36818
850.36919
850.37019
850.37117
850.37212
850.37305
850.37396
850.37484
850.3757
850.37654
850.37734
850.37813
850.37888
850.37962
850.38032
850.38101
850.38166
850.3823
850.3829
850.38349
850.38405
850.38458
850.3851
850.38559
850.38605
850.3865
850.38692
850.38733
850.38771
850.38807
850.38841
850.38874
850.38904
850.38933
850.3896
850.38985
850.39008
850.3903
850.3905
850.39069
850.39086
850.39101
850.39115
850.39128
850.39139
850.3915
850.39158
850.39166
850.39172
850.39178
850.39182
850.39185
850.39187
850.39188
850.39188
850.39188
850.39186
850.39183
850.3918
850.39176
850.39171
850.39165
850.39158
850.39151
850.39144
850.39135
850.39126
850.39116
850.39106
850.39096
850.39084
850.39073
850.3906
850.39048
850.39035
850.39021
850.39007
850.38993
850.38979
850.38964
850.38948
850.38933
850.38917
850.38901
850.38885
850.38868
850.38851
850.38834
850.38817
850.388
850.38782
850.38764
850.38746
850.38728
850.3871
850.38692
850.38673
850.38655
850.38636
850.38617
850.38599
850.3858
850.38561
850.38542
850.38523
850.38504
850.38485
850.38465
850.38446
850.38427
850.38408
850.38389
850.3837
850.3835
850.38331
850.38312
850.38293
850.38274
850.38255
850.38236
850.38217
850.38198
850.38179
850.3816
850.38141
850.38122
850.38103
850.38085
850.38066
850.38047
850.38029
850.3801
850.37992
850.37974
850.37955
850.37937
850.37919
850.37901
850.37883
850.37865
850.37847
850.3783
850.37812
850.37794
850.37777
850.37759
850.37742
850.37725
850.37708
850.37691
850.37674
850.37657
850.3764
850.37623
850.37606
850.3759
850.37573
850.37557
850.37541
850.37524
850.37508
850.37492
850.37476
850.3746
850.37445
850.37429
850.37413
850.37398
850.37382
850.37367
850.37352
850.37336
850.37321
850.37306
850.37291
850.37276
850.37262
850.37247
850.37232
850.37218
850.37203
850.37189
850.37175
850.37161
850.37148
)
;

boundaryField
{
    exteriorWall
    {
        type            calculated;
        value           nonuniform List<scalar> 
200
(
850.35202
850.35302
850.35405
850.35512
850.3562
850.35729
850.3584
850.35951
850.36062
850.36173
850.36284
850.36393
850.36502
850.36609
850.36714
850.36818
850.36919
850.37019
850.37117
850.37212
850.37305
850.37396
850.37484
850.3757
850.37654
850.37734
850.37813
850.37888
850.37962
850.38032
850.38101
850.38166
850.3823
850.3829
850.38349
850.38405
850.38458
850.3851
850.38559
850.38605
850.3865
850.38692
850.38733
850.38771
850.38807
850.38841
850.38874
850.38904
850.38933
850.3896
850.38985
850.39008
850.3903
850.3905
850.39069
850.39086
850.39101
850.39115
850.39128
850.39139
850.3915
850.39158
850.39166
850.39172
850.39178
850.39182
850.39185
850.39187
850.39188
850.39188
850.39188
850.39186
850.39183
850.3918
850.39176
850.39171
850.39165
850.39158
850.39151
850.39144
850.39135
850.39126
850.39116
850.39106
850.39096
850.39084
850.39073
850.3906
850.39048
850.39035
850.39021
850.39007
850.38993
850.38979
850.38964
850.38948
850.38933
850.38917
850.38901
850.38885
850.38868
850.38851
850.38834
850.38817
850.388
850.38782
850.38764
850.38746
850.38728
850.3871
850.38692
850.38673
850.38655
850.38636
850.38617
850.38599
850.3858
850.38561
850.38542
850.38523
850.38504
850.38485
850.38465
850.38446
850.38427
850.38408
850.38389
850.3837
850.3835
850.38331
850.38312
850.38293
850.38274
850.38255
850.38236
850.38217
850.38198
850.38179
850.3816
850.38141
850.38122
850.38103
850.38085
850.38066
850.38047
850.38029
850.3801
850.37992
850.37974
850.37955
850.37937
850.37919
850.37901
850.37883
850.37865
850.37847
850.3783
850.37812
850.37794
850.37777
850.37759
850.37742
850.37725
850.37708
850.37691
850.37674
850.37657
850.3764
850.37623
850.37606
850.3759
850.37573
850.37557
850.37541
850.37524
850.37508
850.37492
850.37476
850.3746
850.37445
850.37429
850.37413
850.37398
850.37382
850.37367
850.37352
850.37336
850.37321
850.37306
850.37291
850.37276
850.37262
850.37247
850.37232
850.37218
850.37203
850.37189
850.37175
850.37161
850.37148
)
;
    }
    inlet
    {
        type            calculated;
        value           uniform 850.35094;
    }
    outlet
    {
        type            calculated;
        value           uniform 850.37145;
    }
    walls
    {
        type            calculated;
        value           nonuniform List<scalar> 
200
(
850.35202
850.35302
850.35405
850.35512
850.3562
850.35729
850.3584
850.35951
850.36062
850.36173
850.36284
850.36393
850.36502
850.36609
850.36714
850.36818
850.36919
850.37019
850.37117
850.37212
850.37305
850.37396
850.37484
850.3757
850.37654
850.37734
850.37813
850.37888
850.37962
850.38032
850.38101
850.38166
850.3823
850.3829
850.38349
850.38405
850.38458
850.3851
850.38559
850.38605
850.3865
850.38692
850.38733
850.38771
850.38807
850.38841
850.38874
850.38904
850.38933
850.3896
850.38985
850.39008
850.3903
850.3905
850.39069
850.39086
850.39101
850.39115
850.39128
850.39139
850.3915
850.39158
850.39166
850.39172
850.39178
850.39182
850.39185
850.39187
850.39188
850.39188
850.39188
850.39186
850.39183
850.3918
850.39176
850.39171
850.39165
850.39158
850.39151
850.39144
850.39135
850.39126
850.39116
850.39106
850.39096
850.39084
850.39073
850.3906
850.39048
850.39035
850.39021
850.39007
850.38993
850.38979
850.38964
850.38948
850.38933
850.38917
850.38901
850.38885
850.38868
850.38851
850.38834
850.38817
850.388
850.38782
850.38764
850.38746
850.38728
850.3871
850.38692
850.38673
850.38655
850.38636
850.38617
850.38599
850.3858
850.38561
850.38542
850.38523
850.38504
850.38485
850.38465
850.38446
850.38427
850.38408
850.38389
850.3837
850.3835
850.38331
850.38312
850.38293
850.38274
850.38255
850.38236
850.38217
850.38198
850.38179
850.3816
850.38141
850.38122
850.38103
850.38085
850.38066
850.38047
850.38029
850.3801
850.37992
850.37974
850.37955
850.37937
850.37919
850.37901
850.37883
850.37865
850.37847
850.3783
850.37812
850.37794
850.37777
850.37759
850.37742
850.37725
850.37708
850.37691
850.37674
850.37657
850.3764
850.37623
850.37606
850.3759
850.37573
850.37557
850.37541
850.37524
850.37508
850.37492
850.37476
850.3746
850.37445
850.37429
850.37413
850.37398
850.37382
850.37367
850.37352
850.37336
850.37321
850.37306
850.37291
850.37276
850.37262
850.37247
850.37232
850.37218
850.37203
850.37189
850.37175
850.37161
850.37148
)
;
    }
    frontAndBack
    {
        type            empty;
    }
}


// ************************************************************************* //
