/*--------------------------------*- C++ -*----------------------------------*\
  =========                 |
  \\      /  F ield         | OpenFOAM: The Open Source CFD Toolbox
   \\    /   O peration     | Website:  https://openfoam.org
    \\  /    A nd           | Version:  10
     \\/     M anipulation  |
\*---------------------------------------------------------------------------*/
FoamFile
{
    format      ascii;
    class       volScalarField;
    location    "5000/FLUID";
    object      kappaEffSolid;
}
// * * * * * * * * * * * * * * * * * * * * * * * * * * * * * * * * * * * * * //

dimensions      [1 1 -3 -1 0 0 0];

internalField   nonuniform List<scalar> 
200
(
0.097953185
0.099724787
0.10148107
0.10322262
0.10495221
0.10666946
0.108374
0.11006573
0.11174453
0.11341027
0.11506281
0.11670204
0.11832784
0.11994009
0.12153868
0.12312353
0.12469454
0.12625163
0.12779471
0.12932373
0.13083861
0.13233932
0.13382579
0.135298
0.13675591
0.13819951
0.13962877
0.14104369
0.14244428
0.14383053
0.14520247
0.1465601
0.14790347
0.14923259
0.15054752
0.1518483
0.15313496
0.15440759
0.15566622
0.15691093
0.15814178
0.15935886
0.16056223
0.16175199
0.16292821
0.16409099
0.16524041
0.16637658
0.1674996
0.16860955
0.16970655
0.1707907
0.17186211
0.17292089
0.17396714
0.17500099
0.17602255
0.17703193
0.17802924
0.17901461
0.17998816
0.18095
0.18190025
0.18283903
0.18376647
0.18468269
0.1855878
0.18648193
0.18736519
0.18823772
0.18909962
0.18995103
0.19079206
0.19162284
0.19244347
0.19325408
0.1940548
0.19484573
0.19562699
0.19639871
0.197161
0.19791396
0.19865773
0.1993924
0.2001181
0.20083493
0.20154301
0.20224244
0.20293334
0.2036158
0.20428995
0.20495587
0.20561369
0.2062635
0.2069054
0.2075395
0.2081659
0.20878469
0.20939597
0.20999985
0.21059641
0.21118575
0.21176796
0.21234314
0.21291138
0.21347277
0.2140274
0.21457535
0.21511671
0.21565157
0.21618002
0.21670213
0.21721798
0.21772767
0.21823127
0.21872886
0.21922051
0.21970631
0.22018633
0.22066065
0.22112934
0.22159247
0.22205011
0.22250234
0.22294923
0.22339084
0.22382725
0.22425851
0.22468471
0.22510589
0.22552213
0.22593349
0.22634003
0.22674182
0.22713892
0.22753137
0.22791925
0.22830262
0.22868152
0.22905602
0.22942618
0.22979204
0.23015366
0.2305111
0.2308644
0.23121363
0.23155883
0.23190005
0.23223734
0.23257075
0.23290033
0.23322613
0.23354819
0.23386657
0.2341813
0.23449243
0.23480001
0.23510408
0.23540468
0.23570185
0.23599565
0.2362861
0.23657326
0.23685715
0.23713783
0.23741533
0.23768968
0.23796093
0.23822911
0.23849427
0.23875643
0.23901564
0.23927192
0.23952532
0.23977587
0.24002361
0.24026856
0.24051076
0.24075024
0.24098704
0.24122119
0.24145272
0.24168166
0.24190804
0.24213189
0.24235324
0.24257212
0.24278856
0.24300258
0.24321423
0.24342351
0.24363047
0.24383513
0.24403751
0.24423763
0.24443548
0.24463089
0.24482292
0.24500674
0.24515838
)
;

boundaryField
{
    exteriorWall
    {
        type            calculated;
        value           nonuniform List<scalar> 
200
(
0.097953185
0.099724787
0.10148107
0.10322262
0.10495221
0.10666946
0.108374
0.11006573
0.11174453
0.11341027
0.11506281
0.11670204
0.11832784
0.11994009
0.12153868
0.12312353
0.12469454
0.12625163
0.12779471
0.12932373
0.13083861
0.13233932
0.13382579
0.135298
0.13675591
0.13819951
0.13962877
0.14104369
0.14244428
0.14383053
0.14520247
0.1465601
0.14790347
0.14923259
0.15054752
0.1518483
0.15313496
0.15440759
0.15566622
0.15691093
0.15814178
0.15935886
0.16056223
0.16175199
0.16292821
0.16409099
0.16524041
0.16637658
0.1674996
0.16860955
0.16970655
0.1707907
0.17186211
0.17292089
0.17396714
0.17500099
0.17602255
0.17703193
0.17802924
0.17901461
0.17998816
0.18095
0.18190025
0.18283903
0.18376647
0.18468269
0.1855878
0.18648193
0.18736519
0.18823772
0.18909962
0.18995103
0.19079206
0.19162284
0.19244347
0.19325408
0.1940548
0.19484573
0.19562699
0.19639871
0.197161
0.19791396
0.19865773
0.1993924
0.2001181
0.20083493
0.20154301
0.20224244
0.20293334
0.2036158
0.20428995
0.20495587
0.20561369
0.2062635
0.2069054
0.2075395
0.2081659
0.20878469
0.20939597
0.20999985
0.21059641
0.21118575
0.21176796
0.21234314
0.21291138
0.21347277
0.2140274
0.21457535
0.21511671
0.21565157
0.21618002
0.21670213
0.21721798
0.21772767
0.21823127
0.21872886
0.21922051
0.21970631
0.22018633
0.22066065
0.22112934
0.22159247
0.22205011
0.22250234
0.22294923
0.22339084
0.22382725
0.22425851
0.22468471
0.22510589
0.22552213
0.22593349
0.22634003
0.22674182
0.22713892
0.22753137
0.22791925
0.22830262
0.22868152
0.22905602
0.22942618
0.22979204
0.23015366
0.2305111
0.2308644
0.23121363
0.23155883
0.23190005
0.23223734
0.23257075
0.23290033
0.23322613
0.23354819
0.23386657
0.2341813
0.23449243
0.23480001
0.23510408
0.23540468
0.23570185
0.23599565
0.2362861
0.23657326
0.23685715
0.23713783
0.23741533
0.23768968
0.23796093
0.23822911
0.23849427
0.23875643
0.23901564
0.23927192
0.23952532
0.23977587
0.24002361
0.24026856
0.24051076
0.24075024
0.24098704
0.24122119
0.24145272
0.24168166
0.24190804
0.24213189
0.24235324
0.24257212
0.24278856
0.24300258
0.24321423
0.24342351
0.24363047
0.24383513
0.24403751
0.24423763
0.24443548
0.24463089
0.24482292
0.24500674
0.24515838
)
;
    }
    inlet
    {
        type            calculated;
        value           uniform 0.095947459;
    }
    outlet
    {
        type            calculated;
        value           uniform 0.24515838;
    }
    walls
    {
        type            calculated;
        value           nonuniform List<scalar> 
200
(
0.097953185
0.099724787
0.10148107
0.10322262
0.10495221
0.10666946
0.108374
0.11006573
0.11174453
0.11341027
0.11506281
0.11670204
0.11832784
0.11994009
0.12153868
0.12312353
0.12469454
0.12625163
0.12779471
0.12932373
0.13083861
0.13233932
0.13382579
0.135298
0.13675591
0.13819951
0.13962877
0.14104369
0.14244428
0.14383053
0.14520247
0.1465601
0.14790347
0.14923259
0.15054752
0.1518483
0.15313496
0.15440759
0.15566622
0.15691093
0.15814178
0.15935886
0.16056223
0.16175199
0.16292821
0.16409099
0.16524041
0.16637658
0.1674996
0.16860955
0.16970655
0.1707907
0.17186211
0.17292089
0.17396714
0.17500099
0.17602255
0.17703193
0.17802924
0.17901461
0.17998816
0.18095
0.18190025
0.18283903
0.18376647
0.18468269
0.1855878
0.18648193
0.18736519
0.18823772
0.18909962
0.18995103
0.19079206
0.19162284
0.19244347
0.19325408
0.1940548
0.19484573
0.19562699
0.19639871
0.197161
0.19791396
0.19865773
0.1993924
0.2001181
0.20083493
0.20154301
0.20224244
0.20293334
0.2036158
0.20428995
0.20495587
0.20561369
0.2062635
0.2069054
0.2075395
0.2081659
0.20878469
0.20939597
0.20999985
0.21059641
0.21118575
0.21176796
0.21234314
0.21291138
0.21347277
0.2140274
0.21457535
0.21511671
0.21565157
0.21618002
0.21670213
0.21721798
0.21772767
0.21823127
0.21872886
0.21922051
0.21970631
0.22018633
0.22066065
0.22112934
0.22159247
0.22205011
0.22250234
0.22294923
0.22339084
0.22382725
0.22425851
0.22468471
0.22510589
0.22552213
0.22593349
0.22634003
0.22674182
0.22713892
0.22753137
0.22791925
0.22830262
0.22868152
0.22905602
0.22942618
0.22979204
0.23015366
0.2305111
0.2308644
0.23121363
0.23155883
0.23190005
0.23223734
0.23257075
0.23290033
0.23322613
0.23354819
0.23386657
0.2341813
0.23449243
0.23480001
0.23510408
0.23540468
0.23570185
0.23599565
0.2362861
0.23657326
0.23685715
0.23713783
0.23741533
0.23768968
0.23796093
0.23822911
0.23849427
0.23875643
0.23901564
0.23927192
0.23952532
0.23977587
0.24002361
0.24026856
0.24051076
0.24075024
0.24098704
0.24122119
0.24145272
0.24168166
0.24190804
0.24213189
0.24235324
0.24257212
0.24278856
0.24300258
0.24321423
0.24342351
0.24363047
0.24383513
0.24403751
0.24423763
0.24443548
0.24463089
0.24482292
0.24500674
0.24515838
)
;
    }
    frontAndBack
    {
        type            empty;
    }
}


// ************************************************************************* //
