/*--------------------------------*- C++ -*----------------------------------*\
  =========                 |
  \\      /  F ield         | OpenFOAM: The Open Source CFD Toolbox
   \\    /   O peration     | Website:  https://openfoam.org
    \\  /    A nd           | Version:  10
     \\/     M anipulation  |
\*---------------------------------------------------------------------------*/
FoamFile
{
    format      ascii;
    class       volScalarField;
    location    "5000/FLUID";
    object      kappaEff;
}
// * * * * * * * * * * * * * * * * * * * * * * * * * * * * * * * * * * * * * //

dimensions      [1 1 -3 -1 0 0 0];

internalField   nonuniform List<scalar> 
200
(
1.9526618
2.0170516
2.032458
2.0432342
2.058616
2.0741081
2.0891959
2.1042948
2.1194104
2.1344964
2.1495462
2.1645552
2.1795159
2.1944211
2.2092644
2.2240396
2.238741
2.253363
2.2679006
2.2823491
2.2967039
2.3109609
2.3251163
2.3391664
2.3531079
2.3669377
2.3806531
2.3942514
2.4077304
2.4210878
2.4343217
2.4474305
2.4604125
2.4732665
2.4859912
2.4985856
2.5110489
2.5233803
2.5355793
2.5476455
2.5595784
2.571378
2.5830441
2.5945768
2.6059762
2.6172425
2.6283761
2.6393773
2.6502466
2.6609845
2.6715917
2.6820689
2.6924167
2.7026361
2.7127278
2.7226928
2.7325319
2.7422462
2.7518368
2.7613045
2.7706507
2.7798763
2.7889825
2.7979704
2.8068414
2.8155965
2.824237
2.8327641
2.8411792
2.8494833
2.8576779
2.8657642
2.8737435
2.8816171
2.8893862
2.8970521
2.9046162
2.9120798
2.919444
2.9267103
2.9338799
2.940954
2.947934
2.9548211
2.9616165
2.9683216
2.9749375
2.9814655
2.9879068
2.9942626
3.0005342
3.0067226
3.0128292
3.018855
3.0248012
3.030669
3.0364594
3.0421737
3.0478128
3.053378
3.0588702
3.0642906
3.0696401
3.0749199
3.080131
3.0852743
3.0903509
3.0953617
3.1003077
3.1051899
3.1100092
3.1147666
3.1194629
3.1240991
3.128676
3.1331945
3.1376556
3.1420599
3.1464084
3.1507019
3.1549413
3.1591272
3.1632605
3.1673419
3.1713723
3.1753523
3.1792827
3.1831643
3.1869977
3.1907836
3.1945227
3.1982158
3.2018634
3.2054663
3.209025
3.2125402
3.2160126
3.2194427
3.2228311
3.2261785
3.2294854
3.2327525
3.2359802
3.2391691
3.2423197
3.2454327
3.2485085
3.2515477
3.2545507
3.2575181
3.2604503
3.2633479
3.2662113
3.269041
3.2718374
3.274601
3.2773323
3.2800317
3.2826996
3.2853365
3.2879427
3.2905187
3.2930648
3.2955816
3.2980693
3.3005284
3.3029592
3.3053621
3.3077375
3.3100857
3.3124071
3.314702
3.3169708
3.3192139
3.3214314
3.3236239
3.3257916
3.3279347
3.3300537
3.3321489
3.3342205
3.3362688
3.3382942
3.3402968
3.3422771
3.3442353
3.3461716
3.3480864
3.3499798
3.3518522
3.3537038
3.3555349
3.3573457
3.3591366
3.3609068
3.36266
3.3643809
3.3661047
3.3676288
3.3692076
)
;

boundaryField
{
    exteriorWall
    {
        type            calculated;
        value           nonuniform List<scalar> 
200
(
1.9526618
2.0170516
2.032458
2.0432342
2.058616
2.0741081
2.0891959
2.1042948
2.1194104
2.1344964
2.1495462
2.1645552
2.1795159
2.1944211
2.2092644
2.2240396
2.238741
2.253363
2.2679006
2.2823491
2.2967039
2.3109609
2.3251163
2.3391664
2.3531079
2.3669377
2.3806531
2.3942514
2.4077304
2.4210878
2.4343217
2.4474305
2.4604125
2.4732665
2.4859912
2.4985856
2.5110489
2.5233803
2.5355793
2.5476455
2.5595784
2.571378
2.5830441
2.5945768
2.6059762
2.6172425
2.6283761
2.6393773
2.6502466
2.6609845
2.6715917
2.6820689
2.6924167
2.7026361
2.7127278
2.7226928
2.7325319
2.7422462
2.7518368
2.7613045
2.7706507
2.7798763
2.7889825
2.7979704
2.8068414
2.8155965
2.824237
2.8327641
2.8411792
2.8494833
2.8576779
2.8657642
2.8737435
2.8816171
2.8893862
2.8970521
2.9046162
2.9120798
2.919444
2.9267103
2.9338799
2.940954
2.947934
2.9548211
2.9616165
2.9683216
2.9749375
2.9814655
2.9879068
2.9942626
3.0005342
3.0067226
3.0128292
3.018855
3.0248012
3.030669
3.0364594
3.0421737
3.0478128
3.053378
3.0588702
3.0642906
3.0696401
3.0749199
3.080131
3.0852743
3.0903509
3.0953617
3.1003077
3.1051899
3.1100092
3.1147666
3.1194629
3.1240991
3.128676
3.1331945
3.1376556
3.1420599
3.1464084
3.1507019
3.1549413
3.1591272
3.1632605
3.1673419
3.1713723
3.1753523
3.1792827
3.1831643
3.1869977
3.1907836
3.1945227
3.1982158
3.2018634
3.2054663
3.209025
3.2125402
3.2160126
3.2194427
3.2228311
3.2261785
3.2294854
3.2327525
3.2359802
3.2391691
3.2423197
3.2454327
3.2485085
3.2515477
3.2545507
3.2575181
3.2604503
3.2633479
3.2662113
3.269041
3.2718374
3.274601
3.2773323
3.2800317
3.2826996
3.2853365
3.2879427
3.2905187
3.2930648
3.2955816
3.2980693
3.3005284
3.3029592
3.3053621
3.3077375
3.3100857
3.3124071
3.314702
3.3169708
3.3192139
3.3214314
3.3236239
3.3257916
3.3279347
3.3300537
3.3321489
3.3342205
3.3362688
3.3382942
3.3402968
3.3422771
3.3442353
3.3461716
3.3480864
3.3499798
3.3518522
3.3537038
3.3555349
3.3573457
3.3591366
3.3609068
3.36266
3.3643809
3.3661047
3.3676288
3.3692076
)
;
    }
    inlet
    {
        type            calculated;
        value           uniform 1.9818636;
    }
    outlet
    {
        type            calculated;
        value           uniform 3.3689635;
    }
    walls
    {
        type            calculated;
        value           nonuniform List<scalar> 
200
(
1.9526618
2.0170516
2.032458
2.0432342
2.058616
2.0741081
2.0891959
2.1042948
2.1194104
2.1344964
2.1495462
2.1645552
2.1795159
2.1944211
2.2092644
2.2240396
2.238741
2.253363
2.2679006
2.2823491
2.2967039
2.3109609
2.3251163
2.3391664
2.3531079
2.3669377
2.3806531
2.3942514
2.4077304
2.4210878
2.4343217
2.4474305
2.4604125
2.4732665
2.4859912
2.4985856
2.5110489
2.5233803
2.5355793
2.5476455
2.5595784
2.571378
2.5830441
2.5945768
2.6059762
2.6172425
2.6283761
2.6393773
2.6502466
2.6609845
2.6715917
2.6820689
2.6924167
2.7026361
2.7127278
2.7226928
2.7325319
2.7422462
2.7518368
2.7613045
2.7706507
2.7798763
2.7889825
2.7979704
2.8068414
2.8155965
2.824237
2.8327641
2.8411792
2.8494833
2.8576779
2.8657642
2.8737435
2.8816171
2.8893862
2.8970521
2.9046162
2.9120798
2.919444
2.9267103
2.9338799
2.940954
2.947934
2.9548211
2.9616165
2.9683216
2.9749375
2.9814655
2.9879068
2.9942626
3.0005342
3.0067226
3.0128292
3.018855
3.0248012
3.030669
3.0364594
3.0421737
3.0478128
3.053378
3.0588702
3.0642906
3.0696401
3.0749199
3.080131
3.0852743
3.0903509
3.0953617
3.1003077
3.1051899
3.1100092
3.1147666
3.1194629
3.1240991
3.128676
3.1331945
3.1376556
3.1420599
3.1464084
3.1507019
3.1549413
3.1591272
3.1632605
3.1673419
3.1713723
3.1753523
3.1792827
3.1831643
3.1869977
3.1907836
3.1945227
3.1982158
3.2018634
3.2054663
3.209025
3.2125402
3.2160126
3.2194427
3.2228311
3.2261785
3.2294854
3.2327525
3.2359802
3.2391691
3.2423197
3.2454327
3.2485085
3.2515477
3.2545507
3.2575181
3.2604503
3.2633479
3.2662113
3.269041
3.2718374
3.274601
3.2773323
3.2800317
3.2826996
3.2853365
3.2879427
3.2905187
3.2930648
3.2955816
3.2980693
3.3005284
3.3029592
3.3053621
3.3077375
3.3100857
3.3124071
3.314702
3.3169708
3.3192139
3.3214314
3.3236239
3.3257916
3.3279347
3.3300537
3.3321489
3.3342205
3.3362688
3.3382942
3.3402968
3.3422771
3.3442353
3.3461716
3.3480864
3.3499798
3.3518522
3.3537038
3.3555349
3.3573457
3.3591366
3.3609068
3.36266
3.3643809
3.3661047
3.3676288
3.3692076
)
;
    }
    frontAndBack
    {
        type            empty;
    }
}


// ************************************************************************* //
