/*--------------------------------*- C++ -*----------------------------------*\
  =========                 |
  \\      /  F ield         | OpenFOAM: The Open Source CFD Toolbox
   \\    /   O peration     | Website:  https://openfoam.org
    \\  /    A nd           | Version:  10
     \\/     M anipulation  |
\*---------------------------------------------------------------------------*/
FoamFile
{
    format      ascii;
    class       volScalarField;
    location    "5000/FLUID";
    object      overallU;
}
// * * * * * * * * * * * * * * * * * * * * * * * * * * * * * * * * * * * * * //

dimensions      [1 0 -3 -1 0 0 0];

internalField   nonuniform List<scalar> 
200
(
177.6734
183.15114
185.09156
186.68798
188.60957
190.53159
192.41661
194.29496
196.16715
198.02989
199.88275
201.72546
203.55752
205.37845
207.18782
208.9852
210.77022
212.54248
214.30166
216.04741
217.77942
219.49742
221.20113
222.89031
224.56473
226.22418
227.86848
229.49745
231.11095
232.70883
234.29099
235.85731
237.40771
238.94211
240.46047
241.96273
243.44886
244.91884
246.37267
247.81034
249.23188
250.63731
252.02666
253.39998
254.75732
256.09874
257.4243
258.73409
260.02819
261.30668
262.56967
263.81724
265.04951
266.26659
267.46859
268.65564
269.82785
270.98536
272.12829
273.25677
274.37095
275.47096
276.55694
277.62903
278.68738
279.73214
280.76344
281.78144
282.78629
283.77813
284.75712
285.7234
286.67714
287.61847
288.54755
289.46453
290.36956
291.26279
292.14437
293.01446
293.87318
294.72071
295.55718
296.38273
297.19752
298.00168
298.79537
299.57872
300.35187
301.11496
301.86813
302.61151
303.34525
304.06948
304.78432
305.48991
306.18638
306.87386
307.55247
308.22234
308.88359
309.53635
310.18073
310.81686
311.44485
312.06481
312.67687
313.28114
313.87772
314.46672
315.04826
315.62245
316.18938
316.74915
317.30188
317.84767
318.3866
318.91879
319.44432
319.96329
320.4758
320.98193
321.48178
321.97544
322.46299
322.94452
323.42011
323.88985
324.35383
324.81212
325.2648
325.71195
326.15365
326.58998
327.021
327.4468
327.86744
328.28301
328.69356
329.09916
329.49989
329.89582
330.287
330.67351
331.0554
331.43274
331.80559
332.17402
332.53808
332.89782
333.25332
333.60462
333.95179
334.29487
334.63393
334.96901
335.30017
335.62745
335.95092
336.27062
336.5866
336.89891
337.2076
337.51271
337.81429
338.11239
338.40705
338.69831
338.98622
339.27083
339.55216
339.83028
340.10521
340.377
340.64568
340.91131
341.1739
341.43351
341.69017
341.94392
342.19479
342.44282
342.68805
342.9305
343.17022
343.40723
343.64158
343.87328
344.10239
344.32891
344.5529
344.77437
344.99336
345.20992
345.42397
345.63582
345.84416
346.05155
346.23973
346.42138
)
;

boundaryField
{
    exteriorWall
    {
        type            calculated;
        value           uniform 0;
    }
    inlet
    {
        type            calculated;
        value           uniform 0;
    }
    outlet
    {
        type            calculated;
        value           uniform 0;
    }
    walls
    {
        type            calculated;
        value           uniform 0;
    }
    frontAndBack
    {
        type            empty;
    }
}


// ************************************************************************* //
