/*--------------------------------*- C++ -*----------------------------------*\
  =========                 |
  \\      /  F ield         | OpenFOAM: The Open Source CFD Toolbox
   \\    /   O peration     | Website:  https://openfoam.org
    \\  /    A nd           | Version:  10
     \\/     M anipulation  |
\*---------------------------------------------------------------------------*/
FoamFile
{
    format      ascii;
    class       volScalarField;
    location    "5000/FLUID";
    object      overallU;
}
// * * * * * * * * * * * * * * * * * * * * * * * * * * * * * * * * * * * * * //

dimensions      [1 0 -3 -1 0 0 0];

internalField   nonuniform List<scalar> 
200
(
174.4306
179.7749
181.63019
183.1458
184.9826
186.82023
188.62169
190.41696
192.20658
193.98733
195.75882
197.52083
199.27288
201.01452
202.74536
204.465
206.17308
207.86925
209.55317
211.22455
212.88308
214.52851
216.16057
217.77905
219.38371
220.97438
222.55086
224.113
225.66065
227.19367
228.71196
230.21541
231.70393
233.17746
234.63593
236.07931
237.50754
238.92061
240.31851
241.70123
243.06878
244.42119
245.75848
247.08067
248.38783
249.67999
250.95723
252.21959
253.46716
254.70001
255.91824
257.12191
258.31114
259.48602
260.64665
261.79315
262.92561
264.04416
265.14892
266.24
267.31753
268.38163
269.43244
270.47007
271.49467
272.50637
273.50529
274.49158
275.46538
276.42681
277.37602
278.31315
279.23834
280.15172
281.05343
281.94362
282.82242
283.68997
284.54641
285.39188
286.22652
287.05046
287.86384
288.6668
289.45947
290.24198
291.01447
291.77707
292.52992
293.27313
294.00685
294.73119
295.4463
296.15228
296.84927
297.53738
298.21675
298.88749
299.54971
300.20355
300.8491
301.4865
302.11585
302.73726
303.35085
303.95672
304.55499
305.14575
305.72912
306.3052
306.87409
307.43589
307.9907
308.53862
309.07975
309.61418
310.14201
310.66333
311.17822
311.68679
312.18911
312.68528
313.17539
313.65951
314.13773
314.61014
315.07681
315.53783
315.99327
316.4432
316.88772
317.32689
317.76078
318.18947
318.61303
319.03154
319.44505
319.85364
320.25738
320.65632
321.05055
321.44012
321.82509
322.20552
322.58149
322.95304
323.32024
323.68314
324.04181
324.3963
324.74666
325.09295
325.43523
325.77354
326.10794
326.43848
326.76521
327.08818
327.40745
327.72305
328.03503
328.34345
328.64835
328.94977
329.24776
329.54236
329.83362
330.12157
330.40627
330.68775
330.96605
331.24121
331.51328
331.78228
332.04827
332.31127
332.57132
332.82847
333.08274
333.33418
333.58281
333.82868
334.07181
334.31224
334.55
334.78513
335.01766
335.24761
335.47502
335.69992
335.92234
336.14232
336.35986
336.57503
336.78775
336.99833
337.20547
337.41169
337.59889
337.77943
)
;

boundaryField
{
    exteriorWall
    {
        type            calculated;
        value           uniform 0;
    }
    inlet
    {
        type            calculated;
        value           uniform 0;
    }
    outlet
    {
        type            calculated;
        value           uniform 0;
    }
    walls
    {
        type            calculated;
        value           uniform 0;
    }
    frontAndBack
    {
        type            empty;
    }
}


// ************************************************************************* //
