/*--------------------------------*- C++ -*----------------------------------*\
  =========                 |
  \\      /  F ield         | OpenFOAM: The Open Source CFD Toolbox
   \\    /   O peration     | Website:  https://openfoam.org
    \\  /    A nd           | Version:  10
     \\/     M anipulation  |
\*---------------------------------------------------------------------------*/
FoamFile
{
    format      ascii;
    class       volScalarField;
    location    "5000/FLUID";
    object      p;
}
// * * * * * * * * * * * * * * * * * * * * * * * * * * * * * * * * * * * * * //

dimensions      [1 -1 -2 0 0 0 0];

internalField   nonuniform List<scalar> 
200
(
103481.63
103477.01
103473.65
103470.51
103467.14
103463.67
103460.11
103456.47
103452.73
103448.9
103444.98
103440.97
103436.86
103432.66
103428.37
103423.98
103419.5
103414.92
103410.25
103405.48
103400.62
103395.66
103390.61
103385.47
103380.23
103374.89
103369.46
103363.93
103358.31
103352.6
103346.79
103340.88
103334.88
103328.79
103322.61
103316.32
103309.95
103303.48
103296.92
103290.27
103283.52
103276.69
103269.76
103262.74
103255.62
103248.42
103241.13
103233.74
103226.27
103218.7
103211.05
103203.31
103195.48
103187.56
103179.56
103171.46
103163.29
103155.02
103146.67
103138.23
103129.71
103121.1
103112.41
103103.64
103094.78
103085.84
103076.82
103067.72
103058.53
103049.27
103039.92
103030.5
103020.99
103011.41
103001.75
102992.01
102982.19
102972.3
102962.33
102952.28
102942.16
102931.96
102921.69
102911.35
102900.93
102890.44
102879.87
102869.24
102858.53
102847.76
102836.91
102825.99
102815.01
102803.95
102792.83
102781.63
102770.38
102759.05
102747.66
102736.2
102724.68
102713.09
102701.44
102689.72
102677.94
102666.1
102654.19
102642.22
102630.19
102618.1
102605.95
102593.74
102581.47
102569.14
102556.76
102544.31
102531.81
102519.25
102506.63
102493.95
102481.22
102468.44
102455.6
102442.7
102429.75
102416.75
102403.69
102390.58
102377.42
102364.21
102350.94
102337.63
102324.26
102310.84
102297.38
102283.86
102270.3
102256.68
102243.02
102229.31
102215.55
102201.75
102187.9
102174
102160.06
102146.07
102132.04
102117.96
102103.84
102089.67
102075.46
102061.21
102046.92
102032.58
102018.2
102003.78
101989.31
101974.81
101960.27
101945.68
101931.06
101916.39
101901.69
101886.95
101872.17
101857.35
101842.49
101827.6
101812.66
101797.69
101782.69
101767.65
101752.57
101737.46
101722.31
101707.12
101691.91
101676.65
101661.37
101646.05
101630.69
101615.3
101599.88
101584.43
101568.94
101553.43
101537.88
101522.29
101506.68
101491.04
101475.36
101459.66
101443.93
101428.16
101412.37
101396.54
101380.69
101364.81
101348.9
101332.98
)
;

boundaryField
{
    exteriorWall
    {
        type            slip;
    }
    inlet
    {
        type            zeroGradient;
    }
    outlet
    {
        type            fixedValue;
        value           uniform 101325;
    }
    walls
    {
        type            slip;
    }
    frontAndBack
    {
        type            empty;
    }
}


// ************************************************************************* //
