/*--------------------------------*- C++ -*----------------------------------*\
  =========                 |
  \\      /  F ield         | OpenFOAM: The Open Source CFD Toolbox
   \\    /   O peration     | Website:  https://openfoam.org
    \\  /    A nd           | Version:  10
     \\/     M anipulation  |
\*---------------------------------------------------------------------------*/
FoamFile
{
    format      ascii;
    class       volScalarField;
    location    "5000/FLUID";
    object      rho;
}
// * * * * * * * * * * * * * * * * * * * * * * * * * * * * * * * * * * * * * //

dimensions      [1 -3 0 0 0 0 0];

internalField   nonuniform List<scalar> 
200
(
1.2179288
1.1939794
1.171143
1.1493296
1.128436
1.1084119
1.0892097
1.0707817
1.0530839
1.0360759
1.0197202
1.0039818
0.98882791
0.97422831
0.96015456
0.94658015
0.93348029
0.92083176
0.90861278
0.89680295
0.88538309
0.87433518
0.86364229
0.85328845
0.84325862
0.83353864
0.82411511
0.81497541
0.80610759
0.79750035
0.789143
0.78102542
0.773138
0.76547165
0.75801772
0.75076801
0.74371473
0.73685047
0.73016816
0.72366111
0.71732292
0.7111475
0.70512904
0.69926201
0.69354111
0.6879613
0.68251775
0.67720585
0.6720212
0.66695958
0.66201695
0.65718943
0.65247334
0.64786512
0.64336137
0.63895881
0.63465433
0.63044491
0.62632766
0.62229981
0.61835869
0.61450174
0.6107265
0.60703058
0.60341172
0.5998677
0.59639641
0.59299581
0.58966394
0.5863989
0.58319886
0.58006206
0.5769868
0.57397143
0.57101437
0.56811409
0.56526911
0.562478
0.55973937
0.55705189
0.55441428
0.55182526
0.54928365
0.54678826
0.54433797
0.54193167
0.5395683
0.53724683
0.53496626
0.53272563
0.53052399
0.52836044
0.52623409
0.52414409
0.5220896
0.52006982
0.51808397
0.51613128
0.51421101
0.51232245
0.5104649
0.50863769
0.50684015
0.50507164
0.50333155
0.50161926
0.49993418
0.49827575
0.49664341
0.49503661
0.49345482
0.49189754
0.49036425
0.48885447
0.48736773
0.48590356
0.48446151
0.48304114
0.48164203
0.48026375
0.47890589
0.47756807
0.47624989
0.47495097
0.47367095
0.47240946
0.47116616
0.46994069
0.46873274
0.46754196
0.46636804
0.46521067
0.46406954
0.46294436
0.46183484
0.46074069
0.45966163
0.4585974
0.45754772
0.45651235
0.45549102
0.45448349
0.45348951
0.45250885
0.45154128
0.45058657
0.4496445
0.44871485
0.44779741
0.44689197
0.44599832
0.44511628
0.44424563
0.4433862
0.44253779
0.44170022
0.44087332
0.4400569
0.43925079
0.43845483
0.43766885
0.43689268
0.43612618
0.43536917
0.43462152
0.43388307
0.43315367
0.43243319
0.43172147
0.43101838
0.43032379
0.42963756
0.42895956
0.42828967
0.42762775
0.42697369
0.42632736
0.42568865
0.42505744
0.4244336
0.42381705
0.42320765
0.4226053
0.4220099
0.42142135
0.42083954
0.42026437
0.41969573
0.41913355
0.41857772
0.41802814
0.41748473
0.41694739
0.41641604
0.41589062
0.41537111
0.4148579
0.41435311
0.41386768
0.4134564
)
;

boundaryField
{
    exteriorWall
    {
        type            calculated;
        value           nonuniform List<scalar> 
200
(
1.2179288
1.1939794
1.171143
1.1493296
1.128436
1.1084119
1.0892097
1.0707817
1.0530839
1.0360759
1.0197202
1.0039818
0.98882791
0.97422831
0.96015456
0.94658015
0.93348029
0.92083176
0.90861278
0.89680295
0.88538309
0.87433518
0.86364229
0.85328845
0.84325862
0.83353864
0.82411511
0.81497541
0.80610759
0.79750035
0.789143
0.78102542
0.773138
0.76547165
0.75801772
0.75076801
0.74371473
0.73685047
0.73016816
0.72366111
0.71732292
0.7111475
0.70512904
0.69926201
0.69354111
0.6879613
0.68251775
0.67720585
0.6720212
0.66695958
0.66201695
0.65718943
0.65247334
0.64786512
0.64336137
0.63895881
0.63465433
0.63044491
0.62632766
0.62229981
0.61835869
0.61450174
0.6107265
0.60703058
0.60341172
0.5998677
0.59639641
0.59299581
0.58966394
0.5863989
0.58319886
0.58006206
0.5769868
0.57397143
0.57101437
0.56811409
0.56526911
0.562478
0.55973937
0.55705189
0.55441428
0.55182526
0.54928365
0.54678826
0.54433797
0.54193167
0.5395683
0.53724683
0.53496626
0.53272563
0.53052399
0.52836044
0.52623409
0.52414409
0.5220896
0.52006982
0.51808397
0.51613128
0.51421101
0.51232245
0.5104649
0.50863769
0.50684015
0.50507164
0.50333155
0.50161926
0.49993418
0.49827575
0.49664341
0.49503661
0.49345482
0.49189754
0.49036425
0.48885447
0.48736773
0.48590356
0.48446151
0.48304114
0.48164203
0.48026375
0.47890589
0.47756807
0.47624989
0.47495097
0.47367095
0.47240946
0.47116616
0.46994069
0.46873274
0.46754196
0.46636804
0.46521067
0.46406954
0.46294436
0.46183484
0.46074069
0.45966163
0.4585974
0.45754772
0.45651235
0.45549102
0.45448349
0.45348951
0.45250885
0.45154128
0.45058657
0.4496445
0.44871485
0.44779741
0.44689197
0.44599832
0.44511628
0.44424563
0.4433862
0.44253779
0.44170022
0.44087332
0.4400569
0.43925079
0.43845483
0.43766885
0.43689268
0.43612618
0.43536917
0.43462152
0.43388307
0.43315367
0.43243319
0.43172147
0.43101838
0.43032379
0.42963756
0.42895956
0.42828967
0.42762775
0.42697369
0.42632736
0.42568865
0.42505744
0.4244336
0.42381705
0.42320765
0.4226053
0.4220099
0.42142135
0.42083954
0.42026437
0.41969573
0.41913355
0.41857772
0.41802814
0.41748473
0.41694739
0.41641604
0.41589062
0.41537111
0.4148579
0.41435311
0.41386768
0.4134564
)
;
    }
    inlet
    {
        type            calculated;
        value           uniform 1.2461371;
    }
    outlet
    {
        type            calculated;
        value           uniform 0.4134241;
    }
    walls
    {
        type            calculated;
        value           nonuniform List<scalar> 
200
(
1.2179288
1.1939794
1.171143
1.1493296
1.128436
1.1084119
1.0892097
1.0707817
1.0530839
1.0360759
1.0197202
1.0039818
0.98882791
0.97422831
0.96015456
0.94658015
0.93348029
0.92083176
0.90861278
0.89680295
0.88538309
0.87433518
0.86364229
0.85328845
0.84325862
0.83353864
0.82411511
0.81497541
0.80610759
0.79750035
0.789143
0.78102542
0.773138
0.76547165
0.75801772
0.75076801
0.74371473
0.73685047
0.73016816
0.72366111
0.71732292
0.7111475
0.70512904
0.69926201
0.69354111
0.6879613
0.68251775
0.67720585
0.6720212
0.66695958
0.66201695
0.65718943
0.65247334
0.64786512
0.64336137
0.63895881
0.63465433
0.63044491
0.62632766
0.62229981
0.61835869
0.61450174
0.6107265
0.60703058
0.60341172
0.5998677
0.59639641
0.59299581
0.58966394
0.5863989
0.58319886
0.58006206
0.5769868
0.57397143
0.57101437
0.56811409
0.56526911
0.562478
0.55973937
0.55705189
0.55441428
0.55182526
0.54928365
0.54678826
0.54433797
0.54193167
0.5395683
0.53724683
0.53496626
0.53272563
0.53052399
0.52836044
0.52623409
0.52414409
0.5220896
0.52006982
0.51808397
0.51613128
0.51421101
0.51232245
0.5104649
0.50863769
0.50684015
0.50507164
0.50333155
0.50161926
0.49993418
0.49827575
0.49664341
0.49503661
0.49345482
0.49189754
0.49036425
0.48885447
0.48736773
0.48590356
0.48446151
0.48304114
0.48164203
0.48026375
0.47890589
0.47756807
0.47624989
0.47495097
0.47367095
0.47240946
0.47116616
0.46994069
0.46873274
0.46754196
0.46636804
0.46521067
0.46406954
0.46294436
0.46183484
0.46074069
0.45966163
0.4585974
0.45754772
0.45651235
0.45549102
0.45448349
0.45348951
0.45250885
0.45154128
0.45058657
0.4496445
0.44871485
0.44779741
0.44689197
0.44599832
0.44511628
0.44424563
0.4433862
0.44253779
0.44170022
0.44087332
0.4400569
0.43925079
0.43845483
0.43766885
0.43689268
0.43612618
0.43536917
0.43462152
0.43388307
0.43315367
0.43243319
0.43172147
0.43101838
0.43032379
0.42963756
0.42895956
0.42828967
0.42762775
0.42697369
0.42632736
0.42568865
0.42505744
0.4244336
0.42381705
0.42320765
0.4226053
0.4220099
0.42142135
0.42083954
0.42026437
0.41969573
0.41913355
0.41857772
0.41802814
0.41748473
0.41694739
0.41641604
0.41589062
0.41537111
0.4148579
0.41435311
0.41386768
0.4134564
)
;
    }
    frontAndBack
    {
        type            empty;
    }
}


// ************************************************************************* //
