/*--------------------------------*- C++ -*----------------------------------*\
  =========                 |
  \\      /  F ield         | OpenFOAM: The Open Source CFD Toolbox
   \\    /   O peration     | Website:  https://openfoam.org
    \\  /    A nd           | Version:  10
     \\/     M anipulation  |
\*---------------------------------------------------------------------------*/
FoamFile
{
    format      ascii;
    class       volScalarField;
    location    "5000/FLUID";
    object      rho;
}
// * * * * * * * * * * * * * * * * * * * * * * * * * * * * * * * * * * * * * //

dimensions      [1 -3 0 0 0 0 0];

internalField   nonuniform List<scalar> 
200
(
1.2176896
1.1933323
1.1701232
1.1479684
1.1267616
1.1064504
1.0869847
1.0683149
1.0503953
1.0331839
1.0166416
1.0007319
0.98542119
0.97067781
0.9564724
0.94277754
0.92956758
0.91681851
0.90450787
0.89261458
0.88111886
0.87000216
0.859247
0.84883697
0.8387566
0.82899131
0.81952736
0.81035177
0.80145228
0.7928173
0.78443588
0.77629764
0.76839273
0.76071186
0.75324617
0.74598729
0.73892723
0.73205843
0.72537368
0.71886615
0.71252929
0.70635691
0.70034308
0.69448215
0.68876874
0.68319771
0.67776415
0.67246336
0.66729087
0.66224238
0.65731379
0.65250117
0.64780076
0.64320895
0.6387223
0.63433748
0.63005132
0.62586078
0.62176291
0.61775491
0.61383409
0.60999783
0.60624365
0.60256914
0.59897199
0.59544998
0.59200096
0.58862288
0.58531374
0.58207163
0.5788947
0.57578118
0.57272934
0.56973752
0.56680412
0.56392761
0.56110648
0.55833929
0.55562465
0.55296121
0.55034767
0.54778276
0.54526528
0.54279403
0.54036788
0.53798573
0.53564649
0.53334913
0.53109265
0.52887607
0.52669845
0.52455888
0.52245646
0.52039033
0.51835966
0.51636364
0.51440148
0.51247241
0.5105757
0.50871062
0.50687647
0.50507257
0.50329826
0.5015529
0.49983586
0.49814653
0.49648433
0.49484867
0.493239
0.49165478
0.49009547
0.48856055
0.48704953
0.48556192
0.48409723
0.48265502
0.48123481
0.47983618
0.47845869
0.47710192
0.47576547
0.47444894
0.47315193
0.47187408
0.47061501
0.46937436
0.46815178
0.46694693
0.46575947
0.46458907
0.46343542
0.4622982
0.46117711
0.46007186
0.45898214
0.45790768
0.4568482
0.45580343
0.4547731
0.45375696
0.45275475
0.45176622
0.45079114
0.44982926
0.44888035
0.44794419
0.44702056
0.44610923
0.44521001
0.44432267
0.44344701
0.44258284
0.44172997
0.44088819
0.44005733
0.4392372
0.43842763
0.43762843
0.43683943
0.43606047
0.43529139
0.43453201
0.43378219
0.43304176
0.43231058
0.43158849
0.43087535
0.43017102
0.42947535
0.42878821
0.42810947
0.42743898
0.42677663
0.42612227
0.4254758
0.42483707
0.42420598
0.42358241
0.42296624
0.42235735
0.42175563
0.42116098
0.42057328
0.41999244
0.41941834
0.41885089
0.41828999
0.41773553
0.41718743
0.41664558
0.41610989
0.41558028
0.41505665
0.41453892
0.41402702
0.41352095
0.41302106
0.41252944
0.41205669
0.41165595
)
;

boundaryField
{
    exteriorWall
    {
        type            calculated;
        value           nonuniform List<scalar> 
200
(
1.2176896
1.1933323
1.1701232
1.1479684
1.1267616
1.1064504
1.0869847
1.0683149
1.0503953
1.0331839
1.0166416
1.0007319
0.98542119
0.97067781
0.9564724
0.94277754
0.92956758
0.91681851
0.90450787
0.89261458
0.88111886
0.87000216
0.859247
0.84883697
0.8387566
0.82899131
0.81952736
0.81035177
0.80145228
0.7928173
0.78443588
0.77629764
0.76839273
0.76071186
0.75324617
0.74598729
0.73892723
0.73205843
0.72537368
0.71886615
0.71252929
0.70635691
0.70034308
0.69448215
0.68876874
0.68319771
0.67776415
0.67246336
0.66729087
0.66224238
0.65731379
0.65250117
0.64780076
0.64320895
0.6387223
0.63433748
0.63005132
0.62586078
0.62176291
0.61775491
0.61383409
0.60999783
0.60624365
0.60256914
0.59897199
0.59544998
0.59200096
0.58862288
0.58531374
0.58207163
0.5788947
0.57578118
0.57272934
0.56973752
0.56680412
0.56392761
0.56110648
0.55833929
0.55562465
0.55296121
0.55034767
0.54778276
0.54526528
0.54279403
0.54036788
0.53798573
0.53564649
0.53334913
0.53109265
0.52887607
0.52669845
0.52455888
0.52245646
0.52039033
0.51835966
0.51636364
0.51440148
0.51247241
0.5105757
0.50871062
0.50687647
0.50507257
0.50329826
0.5015529
0.49983586
0.49814653
0.49648433
0.49484867
0.493239
0.49165478
0.49009547
0.48856055
0.48704953
0.48556192
0.48409723
0.48265502
0.48123481
0.47983618
0.47845869
0.47710192
0.47576547
0.47444894
0.47315193
0.47187408
0.47061501
0.46937436
0.46815178
0.46694693
0.46575947
0.46458907
0.46343542
0.4622982
0.46117711
0.46007186
0.45898214
0.45790768
0.4568482
0.45580343
0.4547731
0.45375696
0.45275475
0.45176622
0.45079114
0.44982926
0.44888035
0.44794419
0.44702056
0.44610923
0.44521001
0.44432267
0.44344701
0.44258284
0.44172997
0.44088819
0.44005733
0.4392372
0.43842763
0.43762843
0.43683943
0.43606047
0.43529139
0.43453201
0.43378219
0.43304176
0.43231058
0.43158849
0.43087535
0.43017102
0.42947535
0.42878821
0.42810947
0.42743898
0.42677663
0.42612227
0.4254758
0.42483707
0.42420598
0.42358241
0.42296624
0.42235735
0.42175563
0.42116098
0.42057328
0.41999244
0.41941834
0.41885089
0.41828999
0.41773553
0.41718743
0.41664558
0.41610989
0.41558028
0.41505665
0.41453892
0.41402702
0.41352095
0.41302106
0.41252944
0.41205669
0.41165595
)
;
    }
    inlet
    {
        type            calculated;
        value           uniform 1.2464038;
    }
    outlet
    {
        type            calculated;
        value           uniform 0.41162355;
    }
    walls
    {
        type            calculated;
        value           nonuniform List<scalar> 
200
(
1.2176896
1.1933323
1.1701232
1.1479684
1.1267616
1.1064504
1.0869847
1.0683149
1.0503953
1.0331839
1.0166416
1.0007319
0.98542119
0.97067781
0.9564724
0.94277754
0.92956758
0.91681851
0.90450787
0.89261458
0.88111886
0.87000216
0.859247
0.84883697
0.8387566
0.82899131
0.81952736
0.81035177
0.80145228
0.7928173
0.78443588
0.77629764
0.76839273
0.76071186
0.75324617
0.74598729
0.73892723
0.73205843
0.72537368
0.71886615
0.71252929
0.70635691
0.70034308
0.69448215
0.68876874
0.68319771
0.67776415
0.67246336
0.66729087
0.66224238
0.65731379
0.65250117
0.64780076
0.64320895
0.6387223
0.63433748
0.63005132
0.62586078
0.62176291
0.61775491
0.61383409
0.60999783
0.60624365
0.60256914
0.59897199
0.59544998
0.59200096
0.58862288
0.58531374
0.58207163
0.5788947
0.57578118
0.57272934
0.56973752
0.56680412
0.56392761
0.56110648
0.55833929
0.55562465
0.55296121
0.55034767
0.54778276
0.54526528
0.54279403
0.54036788
0.53798573
0.53564649
0.53334913
0.53109265
0.52887607
0.52669845
0.52455888
0.52245646
0.52039033
0.51835966
0.51636364
0.51440148
0.51247241
0.5105757
0.50871062
0.50687647
0.50507257
0.50329826
0.5015529
0.49983586
0.49814653
0.49648433
0.49484867
0.493239
0.49165478
0.49009547
0.48856055
0.48704953
0.48556192
0.48409723
0.48265502
0.48123481
0.47983618
0.47845869
0.47710192
0.47576547
0.47444894
0.47315193
0.47187408
0.47061501
0.46937436
0.46815178
0.46694693
0.46575947
0.46458907
0.46343542
0.4622982
0.46117711
0.46007186
0.45898214
0.45790768
0.4568482
0.45580343
0.4547731
0.45375696
0.45275475
0.45176622
0.45079114
0.44982926
0.44888035
0.44794419
0.44702056
0.44610923
0.44521001
0.44432267
0.44344701
0.44258284
0.44172997
0.44088819
0.44005733
0.4392372
0.43842763
0.43762843
0.43683943
0.43606047
0.43529139
0.43453201
0.43378219
0.43304176
0.43231058
0.43158849
0.43087535
0.43017102
0.42947535
0.42878821
0.42810947
0.42743898
0.42677663
0.42612227
0.4254758
0.42483707
0.42420598
0.42358241
0.42296624
0.42235735
0.42175563
0.42116098
0.42057328
0.41999244
0.41941834
0.41885089
0.41828999
0.41773553
0.41718743
0.41664558
0.41610989
0.41558028
0.41505665
0.41453892
0.41402702
0.41352095
0.41302106
0.41252944
0.41205669
0.41165595
)
;
    }
    frontAndBack
    {
        type            empty;
    }
}


// ************************************************************************* //
