/*--------------------------------*- C++ -*----------------------------------*\
  =========                 |
  \\      /  F ield         | OpenFOAM: The Open Source CFD Toolbox
   \\    /   O peration     | Website:  https://openfoam.org
    \\  /    A nd           | Version:  10
     \\/     M anipulation  |
\*---------------------------------------------------------------------------*/
FoamFile
{
    format      ascii;
    class       volVectorField;
    location    "5000/FLUID";
    object      U;
}
// * * * * * * * * * * * * * * * * * * * * * * * * * * * * * * * * * * * * * //

dimensions      [0 1 -1 0 0 0 0];

internalField   nonuniform List<vector> 
200
(
(4.9933496 8.9927776e-20 0)
(5.2313148 1.3896688e-19 0)
(5.3359041 -1.8866736e-19 0)
(5.4267086 -4.1484013e-19 0)
(5.5296203 -1.4240498e-19 0)
(5.6321838 3.9386594e-20 0)
(5.7329278 2.488151e-20 0)
(5.8330549 3.1302021e-20 0)
(5.9326038 3.3264664e-20 0)
(6.0314577 2.8195381e-20 0)
(6.1296153 2.0183913e-20 0)
(6.2270812 1.342201e-20 0)
(6.3238502 9.8865259e-21 0)
(6.4199178 9.4900947e-21 0)
(6.515281 1.1090094e-20 0)
(6.6099373 1.3399446e-20 0)
(6.7038844 1.5477343e-20 0)
(6.7971207 1.6843799e-20 0)
(6.8896449 1.7385007e-20 0)
(6.981456 1.7199283e-20 0)
(7.0725533 1.6468854e-20 0)
(7.1629368 1.5950285e-20 0)
(7.2526063 4.0901213e-19 0)
(7.3415623 3.6631234e-19 0)
(7.4298054 -6.3795897e-20 0)
(7.5173365 -5.8537377e-20 0)
(7.6041569 -5.3843319e-20 0)
(7.690268 -3.6500421e-19 0)
(7.7756714 -3.4718722e-19 0)
(7.8603689 -1.6555483e-20 0)
(7.9443627 -5.1860373e-21 0)
(8.0276549 7.3203938e-21 0)
(8.1102479 1.4811998e-20 0)
(8.1921443 -4.0931291e-19 0)
(8.2733469 -3.5644808e-19 0)
(8.3538584 1.0988943e-19 0)
(8.433682 9.9501824e-20 0)
(8.5128207 8.9373633e-20 0)
(8.5912778 7.8995538e-20 0)
(8.6690565 -5.2815996e-19 0)
(8.7461605 -4.2046674e-19 0)
(8.8225932 2.2777766e-19 0)
(8.8983583 1.6187072e-19 0)
(8.9734594 1.439688e-19 0)
(9.0479005 1.3048999e-19 0)
(9.1216853 1.1658024e-19 0)
(9.1948178 1.0257623e-19 0)
(9.2673021 8.9066077e-20 0)
(9.339142 7.6600903e-20 0)
(9.4103419 6.562002e-20 0)
(9.4809057 5.6330336e-20 0)
(9.5508378 4.8685809e-20 0)
(9.6201423 4.2464385e-20 0)
(9.6888235 3.7373101e-20 0)
(9.7568858 3.3130239e-20 0)
(9.8243334 2.9508755e-20 0)
(9.8911707 2.634726e-20 0)
(9.9574021 2.3541737e-20 0)
(10.023032 2.102957e-20 0)
(10.088065 1.8773407e-20 0)
(10.152505 1.6748547e-20 0)
(10.216357 1.4934883e-20 0)
(10.279625 1.3312926e-20 0)
(10.342314 1.1862752e-20 0)
(10.404428 1.0564581e-20 0)
(10.465971 9.3999313e-21 0)
(10.526949 8.3526143e-21 0)
(10.587366 7.4072277e-21 0)
(10.647225 5.4355662e-21 0)
(10.706532 -7.2491544e-19 0)
(10.765291 2.128262e-19 0)
(10.823506 9.0475481e-19 0)
(10.881183 -3.1909353e-20 0)
(10.938325 -6.8255149e-19 0)
(10.994936 -1.1610182e-19 0)
(11.051022 5.6604557e-19 0)
(11.106586 7.3504821e-20 0)
(11.161634 -3.341592e-19 0)
(11.216168 3.2473045e-19 0)
(11.270195 6.5589902e-19 0)
(11.323718 -1.4289595e-19 0)
(11.376741 -1.6399519e-19 0)
(11.429269 -1.5093111e-19 0)
(11.481306 -1.0743979e-19 0)
(11.532857 -6.4770798e-20 0)
(11.583925 -3.5564407e-20 0)
(11.634515 -1.9870844e-20 0)
(11.684631 -1.336142e-20 0)
(11.734278 -1.15838e-20 0)
(11.783459 -1.1393367e-20 0)
(11.832179 -1.1083479e-20 0)
(11.880441 -1.0051913e-20 0)
(11.928251 -8.3711071e-21 0)
(11.975611 -8.2317977e-21 0)
(12.022527 -7.6799815e-19 0)
(12.069002 1.2367839e-19 0)
(12.11504 7.6108186e-19 0)
(12.160645 -1.4750712e-19 0)
(12.205821 -5.3821506e-19 0)
(12.250572 2.8963544e-19 0)
(12.294902 -4.5386534e-19 0)
(12.338815 -1.1751207e-18 0)
(12.382315 -6.6136586e-19 0)
(12.425406 1.2715535e-19 0)
(12.46809 2.4623291e-20 0)
(12.510373 -5.2037434e-19 0)
(12.552258 1.8522841e-21 0)
(12.593749 7.4773772e-19 0)
(12.634849 3.6973089e-19 0)
(12.675563 -4.5472714e-19 0)
(12.715893 -2.6558868e-19 0)
(12.755843 -5.3148963e-19 0)
(12.795418 9.2725524e-19 0)
(12.83462 2.7977706e-19 0)
(12.873453 -5.3426869e-19 0)
(12.911921 -7.4195758e-19 0)
(12.950027 4.5588118e-19 0)
(12.987774 2.6445861e-19 0)
(13.025167 -8.0164376e-19 0)
(13.062208 -5.9588135e-19 0)
(13.098901 4.6843941e-19 0)
(13.13525 4.9352473e-19 0)
(13.171257 -4.5583146e-19 0)
(13.206926 -4.5934445e-19 0)
(13.24226 6.4101912e-19 0)
(13.277262 4.8034447e-19 0)
(13.311936 -6.8929435e-19 0)
(13.346285 -5.7232079e-19 0)
(13.380313 2.2933859e-19 0)
(13.414021 2.5850425e-19 0)
(13.447414 -4.5039736e-19 0)
(13.480494 -3.145666e-19 0)
(13.513264 6.278155e-19 0)
(13.545729 3.4111609e-19 0)
(13.577889 -6.5329749e-19 0)
(13.60975 6.2146969e-19 0)
(13.641313 5.1547093e-19 0)
(13.672581 1.6048462e-18 0)
(13.703558 1.3632324e-18 0)
(13.734246 -2.0640208e-20 0)
(13.764648 -1.1401576e-18 0)
(13.794768 4.7166315e-20 0)
(13.824607 6.1752976e-19 0)
(13.854169 -6.905401e-19 0)
(13.883456 -1.3799964e-19 0)
(13.912472 9.8948367e-19 0)
(13.941218 7.8582953e-19 0)
(13.969698 -2.8358717e-19 0)
(13.997914 -1.161697e-18 0)
(14.025869 2.0890085e-19 0)
(14.053565 -3.2185973e-21 0)
(14.081006 -1.1247218e-18 0)
(14.108194 3.3224272e-19 0)
(14.13513 1.2153315e-18 0)
(14.161819 1.17727e-18 0)
(14.188262 8.1007001e-20 0)
(14.214461 -1.0537558e-18 0)
(14.24042 7.7515929e-20 0)
(14.266141 -2.3503993e-20 0)
(14.291625 -1.0072169e-18 0)
(14.316876 1.1734264e-19 0)
(14.341896 6.6036538e-20 0)
(14.366688 1.2776959e-18 0)
(14.391253 1.0970365e-18 0)
(14.415593 -2.7588702e-19 0)
(14.439712 -1.4084197e-18 0)
(14.463611 6.215219e-20 0)
(14.487293 6.1119775e-20 0)
(14.51076 -1.1618548e-18 0)
(14.534014 2.035973e-19 0)
(14.557057 1.2690829e-18 0)
(14.579892 1.0148177e-18 0)
(14.60252 -2.569427e-19 0)
(14.624944 -1.360247e-18 0)
(14.647165 -5.0575103e-20 0)
(14.669187 8.199993e-20 0)
(14.69101 -9.8883384e-19 0)
(14.712638 2.3165953e-19 0)
(14.734071 1.298457e-18 0)
(14.755313 1.0379266e-18 0)
(14.776364 -2.8910408e-19 0)
(14.797228 -1.346152e-18 0)
(14.817905 1.0844577e-19 0)
(14.838398 2.7405309e-20 0)
(14.858709 -1.195732e-18 0)
(14.87884 2.0357804e-19 0)
(14.898792 1.6501473e-19 0)
(14.918567 1.1428739e-18 0)
(14.938167 1.0661583e-18 0)
(14.957594 -6.3602956e-20 0)
(14.97685 -1.0885392e-18 0)
(14.995937 6.7597681e-20 0)
(15.014855 -2.9619087e-19 0)
(15.033609 -1.3105094e-18 0)
(15.052193 1.5503221e-19 0)
(15.070625 1.0883347e-18 0)
(15.088825 9.9378765e-19 0)
(15.106923 7.7101815e-21 0)
(15.123759 -8.6911324e-19 0)
(15.139628 -1.7657982e-18 0)
)
;

boundaryField
{
    exteriorWall
    {
        type            slip;
    }
    inlet
    {
        type            fixedValue;
        value           uniform (5 0 0);
    }
    outlet
    {
        type            zeroGradient;
    }
    walls
    {
        type            slip;
    }
    frontAndBack
    {
        type            empty;
    }
}


// ************************************************************************* //
