/*--------------------------------*- C++ -*----------------------------------*\
  =========                 |
  \\      /  F ield         | OpenFOAM: The Open Source CFD Toolbox
   \\    /   O peration     | Website:  https://openfoam.org
    \\  /    A nd           | Version:  10
     \\/     M anipulation  |
\*---------------------------------------------------------------------------*/
FoamFile
{
    format      ascii;
    class       volVectorField;
    location    "5000/FLUID";
    object      U;
}
// * * * * * * * * * * * * * * * * * * * * * * * * * * * * * * * * * * * * * //

dimensions      [0 1 -1 0 0 0 0];

internalField   nonuniform List<vector> 
200
(
(4.9918328 8.4111911e-20 0)
(5.2273243 7.6138278e-20 0)
(5.3300965 -2.2493484e-19 0)
(5.4191418 -5.116365e-19 0)
(5.52025 -2.3710763e-19 0)
(5.621027 1.0599554e-19 0)
(5.7200067 9.6013624e-20 0)
(5.8183862 8.0576421e-20 0)
(5.9162049 6.4686842e-20 0)
(6.0133476 5.1335866e-20 0)
(6.1098131 4.1541967e-20 0)
(6.2056069 3.4981272e-20 0)
(6.3007242 3.0673671e-20 0)
(6.3951611 2.7589031e-20 0)
(6.4889149 2.4989454e-20 0)
(6.5819834 2.2495963e-20 0)
(6.6743645 1.9997889e-20 0)
(6.7660567 1.752728e-20 0)
(6.857059 1.5163836e-20 0)
(6.9473704 1.2983922e-20 0)
(7.0369907 1.1042662e-20 0)
(7.1259198 9.8618764e-21 0)
(7.2141578 3.6766076e-19 0)
(7.3017051 3.1111293e-19 0)
(7.3885627 -7.9384355e-20 0)
(7.4747313 -5.5082811e-20 0)
(7.5602122 -4.8616676e-20 0)
(7.6450067 -4.5808627e-19 0)
(7.7291166 -4.091239e-19 0)
(7.8125437 4.3016863e-20 0)
(7.8952899 4.0587491e-20 0)
(7.9773574 3.8664946e-20 0)
(8.0587486 3.5864127e-20 0)
(8.1394659 -4.7743151e-19 0)
(8.2195121 -3.8687797e-19 0)
(8.2988897 1.8115542e-19 0)
(8.3776018 1.3113755e-19 0)
(8.4556514 9.7930356e-20 0)
(8.5330414 8.0341348e-20 0)
(8.6097753 -3.8166785e-19 0)
(8.6858562 -3.4416618e-19 0)
(8.7612875 1.3816487e-19 0)
(8.8360728 1.3235945e-19 0)
(8.9102156 1.2723327e-19 0)
(8.9837195 1.1792801e-19 0)
(9.0565883 1.052307e-19 0)
(9.1288256 9.1795477e-20 0)
(9.2004353 7.9574587e-20 0)
(9.2714213 6.9302233e-20 0)
(9.3417874 6.0907688e-20 0)
(9.4115376 5.399938e-20 0)
(9.480676 4.8154453e-20 0)
(9.5492065 4.3038094e-20 0)
(9.6171333 3.8430132e-20 0)
(9.6844603 3.4211342e-20 0)
(9.7511918 3.0335104e-20 0)
(9.8173319 2.6796656e-20 0)
(9.8828847 2.3606599e-20 0)
(9.9478545 2.0772235e-20 0)
(10.012245 1.8287688e-20 0)
(10.076062 1.6131612e-20 0)
(10.139308 1.42701e-20 0)
(10.201987 1.2662149e-20 0)
(10.264105 1.126546e-20 0)
(10.325665 1.0041121e-20 0)
(10.386672 8.9565124e-21 0)
(10.44713 7.9864002e-21 0)
(10.507042 7.1102823e-21 0)
(10.566415 5.1716924e-21 0)
(10.62525 -5.7984817e-19 0)
(10.683554 -2.7512041e-19 0)
(10.74133 5.1462738e-19 0)
(10.798582 3.1066721e-19 0)
(10.855314 -7.2681052e-19 0)
(10.911532 1.2775069e-19 0)
(10.967239 8.8217773e-19 0)
(11.022438 -5.4048618e-20 0)
(11.077136 -7.7586814e-19 0)
(11.131334 7.1719311e-20 0)
(11.185039 7.1455214e-19 0)
(11.238253 -1.5211717e-19 0)
(11.290982 3.6644807e-21 0)
(11.343229 3.1933431e-20 0)
(11.394998 1.2298937e-20 0)
(11.446293 -7.9577316e-21 0)
(11.497119 -1.5498496e-20 0)
(11.547479 -1.3806885e-20 0)
(11.597378 -9.235456e-21 0)
(11.646819 -5.5444629e-21 0)
(11.695806 -3.6544709e-21 0)
(11.744345 -3.0045459e-21 0)
(11.792437 -2.7415402e-21 0)
(11.840088 -2.3089965e-21 0)
(11.887301 -3.5308205e-21 0)
(11.93408 -8.2150886e-19 0)
(11.98043 -2.7770544e-19 0)
(12.026353 7.4661015e-19 0)
(12.071854 2.464819e-19 0)
(12.116936 -8.621296e-19 0)
(12.161603 -6.3530628e-21 0)
(12.205859 -2.7179859e-20 0)
(12.249708 -7.3438643e-19 0)
(12.293154 -5.8956302e-19 0)
(12.336199 5.6774722e-19 0)
(12.378848 6.8418708e-19 0)
(12.421105 -5.4311306e-19 0)
(12.462972 -7.4733705e-19 0)
(12.504454 3.0619472e-19 0)
(12.545554 2.0242957e-19 0)
(12.586276 -8.1828769e-19 0)
(12.626622 -5.8461486e-19 0)
(12.666597 -6.0665283e-19 0)
(12.706205 1.4429418e-18 0)
(12.745447 3.04585e-19 0)
(12.784329 -7.9454058e-19 0)
(12.822852 -2.5588721e-19 0)
(12.861022 3.7377228e-19 0)
(12.89884 6.7510233e-20 0)
(12.93631 -5.7965062e-19 0)
(12.973436 -2.242357e-19 0)
(13.01022 5.9049735e-19 0)
(13.046667 5.000595e-19 0)
(13.082779 -5.3601858e-19 0)
(13.118559 -9.7127104e-19 0)
(13.15401 2.4520277e-19 0)
(13.189136 4.947474e-19 0)
(13.22394 -3.3849523e-19 0)
(13.258425 -2.1470559e-19 0)
(13.292593 7.3142438e-19 0)
(13.326448 2.9926682e-19 0)
(13.359994 -7.8731194e-19 0)
(13.393232 -3.3354598e-19 0)
(13.426166 8.2793643e-19 0)
(13.458798 4.0003447e-19 0)
(13.491132 -6.5183808e-19 0)
(13.523171 5.4159553e-19 0)
(13.554917 3.9193013e-19 0)
(13.586374 1.4639534e-18 0)
(13.617543 1.2194778e-18 0)
(13.648428 -1.4188074e-19 0)
(13.679032 -1.2086389e-18 0)
(13.709357 -4.9521094e-21 0)
(13.739406 5.6067921e-20 0)
(13.769182 -8.4288525e-19 0)
(13.798687 4.107633e-19 0)
(13.827925 1.0299335e-18 0)
(13.856896 1.0219072e-18 0)
(13.885606 1.4961534e-19 0)
(13.914055 -9.2236903e-19 0)
(13.942246 1.7031258e-19 0)
(13.970182 6.8078904e-22 0)
(13.997866 -1.2300417e-18 0)
(14.0253 -1.3456523e-19 0)
(14.052486 1.1566902e-18 0)
(14.079427 9.930327e-19 0)
(14.106125 -1.9014551e-19 0)
(14.132583 -1.2733169e-18 0)
(14.158803 7.8357761e-21 0)
(14.184787 5.5782743e-20 0)
(14.210538 -9.3015391e-19 0)
(14.236058 4.0678305e-19 0)
(14.26135 2.8157055e-19 0)
(14.286415 1.3193016e-18 0)
(14.311256 1.0480025e-18 0)
(14.335875 -2.7503324e-19 0)
(14.360274 -1.1304104e-18 0)
(14.384456 6.4838494e-21 0)
(14.408423 2.7596587e-20 0)
(14.432176 -9.9943555e-19 0)
(14.455718 1.4209482e-20 0)
(14.479052 1.0624951e-18 0)
(14.502178 1.0440851e-18 0)
(14.5251 -4.5905241e-20 0)
(14.547819 -1.3360167e-18 0)
(14.570338 -6.4510194e-21 0)
(14.592657 7.7378266e-20 0)
(14.614781 -1.1188838e-18 0)
(14.636709 1.3330088e-19 0)
(14.658445 1.2025128e-18 0)
(14.67999 1.0572478e-18 0)
(14.701346 -1.3591604e-19 0)
(14.722516 -9.4858085e-19 0)
(14.7435 3.8978256e-19 0)
(14.764301 8.6384711e-20 0)
(14.784921 -1.2200937e-18 0)
(14.805362 -2.9632449e-20 0)
(14.825624 1.3027056e-20 0)
(14.845711 1.2287396e-18 0)
(14.865624 1.0051574e-18 0)
(14.885364 -3.3295988e-19 0)
(14.904934 -1.4429074e-18 0)
(14.924335 3.5335515e-20 0)
(14.943569 2.3535666e-19 0)
(14.962638 -1.14704e-18 0)
(14.981538 -2.3212126e-20 0)
(15.000286 1.0050358e-18 0)
(15.018802 1.0785729e-18 0)
(15.037215 2.5860439e-20 0)
(15.054355 -1.3746805e-18 0)
(15.070469 -2.4113317e-18 0)
)
;

boundaryField
{
    exteriorWall
    {
        type            slip;
    }
    inlet
    {
        type            fixedValue;
        value           uniform (5 0 0);
    }
    outlet
    {
        type            zeroGradient;
    }
    walls
    {
        type            slip;
    }
    frontAndBack
    {
        type            empty;
    }
}


// ************************************************************************* //
