/*--------------------------------*- C++ -*----------------------------------*\
  =========                 |
  \\      /  F ield         | OpenFOAM: The Open Source CFD Toolbox
   \\    /   O peration     | Website:  https://openfoam.org
    \\  /    A nd           | Version:  10
     \\/     M anipulation  |
\*---------------------------------------------------------------------------*/
FoamFile
{
    format      ascii;
    class       volScalarField;
    location    "700/FLUID";
    object      alphaEffFluid;
}
// * * * * * * * * * * * * * * * * * * * * * * * * * * * * * * * * * * * * * //

dimensions      [1 -1 -1 0 0 0 0];

internalField   nonuniform List<scalar> 
1200
(
0.0023116534
0.0023810222
0.0024694428
0.002554154
0.0026331881
0.0027055191
0.0027699434
0.0028265735
0.0028761357
0.0029194861
0.0029575071
0.0029910362
0.0030208234
0.0030475047
0.0030716156
0.0030936057
0.003113878
0.0031327635
0.0031505278
0.003167403
0.0031835854
0.0031992374
0.0032144919
0.0032294573
0.0032442205
0.0032588507
0.0032734016
0.0032879148
0.0033024209
0.0033169422
0.0033314938
0.0033460852
0.0033607212
0.0033754028
0.0033901284
0.0034048942
0.0034196954
0.0034345255
0.0034493771
0.003464242
0.003479112
0.0034939788
0.0035088344
0.0035236706
0.00353848
0.0035532551
0.0035679888
0.0035826747
0.0035973063
0.0036118779
0.0036263839
0.0036408192
0.0036551792
0.0036694599
0.0036836574
0.0036977685
0.0037117903
0.0037257203
0.0037395562
0.0037532962
0.0037669386
0.003780482
0.0037939255
0.0038072683
0.0038205132
0.0038336603
0.0038467092
0.0038596595
0.0038725111
0.003885264
0.0038979182
0.0039104738
0.0039229309
0.0039352899
0.003947551
0.0039597146
0.0039717812
0.0039837514
0.0039956257
0.0040074047
0.0040190892
0.0040306799
0.0040421776
0.004053583
0.0040648972
0.0040761209
0.004087255
0.0040983006
0.0041092585
0.0041201298
0.0041309154
0.0041416164
0.0041522337
0.0041627684
0.0041732215
0.004183594
0.004193887
0.0042041014
0.0042142384
0.0042242989
0.0042342839
0.0042441945
0.0042540317
0.0042637964
0.0042734896
0.0042831124
0.0042926656
0.0043021503
0.0043115673
0.0043209177
0.0043302023
0.004339422
0.0043485777
0.0043576703
0.0043667008
0.0043756698
0.0043845783
0.004393427
0.0044022169
0.0044109486
0.0044196231
0.0044282409
0.004436803
0.00444531
0.0044537627
0.0044621617
0.0044705078
0.0044788017
0.0044870441
0.0044952355
0.0045033767
0.0045114683
0.004519511
0.0045275052
0.0045354517
0.004543351
0.0045512037
0.0045590104
0.0045667716
0.0045744878
0.0045821597
0.0045897877
0.0045973723
0.0046049141
0.0046124134
0.0046198709
0.004627287
0.0046346622
0.0046419968
0.0046492915
0.0046565465
0.0046637623
0.0046709394
0.0046780782
0.004685179
0.0046922423
0.0046992684
0.0047062578
0.0047132109
0.0047201279
0.0047270092
0.0047338553
0.0047406664
0.0047474429
0.0047541852
0.0047608935
0.0047675682
0.0047742096
0.0047808181
0.0047873939
0.0047939373
0.0048004487
0.0048069283
0.0048133764
0.0048197933
0.0048261793
0.0048325346
0.0048388596
0.0048451544
0.0048514194
0.0048576547
0.0048638608
0.0048700377
0.0048761858
0.0048823052
0.0048883962
0.0048944591
0.004900494
0.0049065011
0.0049124806
0.0049184326
0.0049243571
0.0049302538
0.0049361224
0.0049419601
0.0049477696
0.0049535172
0.0049592895
0.0049645124
0.0049709738
0.0023275255
0.0024167935
0.0025037279
0.0025763721
0.0026401061
0.0026953929
0.0027426612
0.0027833414
0.0028188136
0.002850235
0.0028785884
0.0029046681
0.0029291096
0.0029524353
0.0029750596
0.0029972293
0.0030190955
0.0030407694
0.0030623243
0.0030837987
0.0031052094
0.0031265604
0.0031478465
0.0031690581
0.0031901827
0.003211207
0.0032321176
0.0032529017
0.0032735477
0.003294045
0.0033143843
0.0033345574
0.0033545575
0.0033743785
0.0033940156
0.0034134649
0.0034327231
0.0034517872
0.0034706554
0.0034893264
0.0035077998
0.0035260755
0.0035441536
0.0035620345
0.0035797188
0.0035972076
0.0036145018
0.0036316028
0.0036485121
0.0036652318
0.0036817639
0.0036981175
0.0037142954
0.0037302993
0.0037461309
0.003761792
0.0037772843
0.0037926096
0.0038077696
0.0038227659
0.0038376002
0.0038522742
0.0038667893
0.0038811472
0.0038953474
0.0039093912
0.0039232803
0.0039370166
0.0039506018
0.003964038
0.003977327
0.0039904709
0.0040034717
0.0040163315
0.0040290522
0.0040416359
0.0040540846
0.0040664004
0.0040785852
0.004090641
0.0041025698
0.0041143735
0.0041260541
0.0041376134
0.0041490533
0.0041603756
0.0041715821
0.0041826747
0.0041936551
0.004204525
0.0042152861
0.0042259401
0.0042364887
0.0042469334
0.0042572759
0.0042675176
0.0042776603
0.0042877052
0.004297654
0.004307508
0.0043172688
0.0043269376
0.0043365159
0.0043460049
0.004355406
0.0043647206
0.0043739497
0.0043830948
0.0043921569
0.0044011373
0.0044100372
0.0044188576
0.0044275997
0.0044362646
0.0044448534
0.004453367
0.0044618066
0.0044701731
0.0044784676
0.0044866909
0.004494844
0.0045029279
0.0045109434
0.0045188915
0.004526773
0.0045345887
0.0045423395
0.0045500263
0.0045576497
0.0045652107
0.0045727099
0.0045801481
0.0045875261
0.0045948446
0.0046021042
0.0046093057
0.0046164498
0.0046235371
0.0046305683
0.004637544
0.0046444649
0.0046513315
0.0046581445
0.0046649045
0.0046716121
0.0046782678
0.0046848722
0.0046914258
0.0046979292
0.0047043829
0.0047107875
0.0047171434
0.0047234511
0.0047297113
0.0047359242
0.0047420905
0.0047482106
0.0047542849
0.004760314
0.0047662981
0.0047722379
0.0047781337
0.004783986
0.0047897951
0.0047955615
0.0048012856
0.0048069678
0.0048126084
0.0048182079
0.0048237667
0.0048292851
0.0048347635
0.0048402022
0.0048456017
0.0048509622
0.0048562842
0.0048615679
0.0048668137
0.0048720219
0.0048771929
0.004882327
0.0048874245
0.0048924858
0.004897511
0.0049025006
0.0049074549
0.0049123741
0.0049172586
0.0049221085
0.0049269243
0.0049317061
0.0049364541
0.0049411686
0.0049458498
0.0049504968
0.004955113
0.004959679
0.0049642585
0.0049684509
0.0049734811
0.0023522101
0.0024611424
0.0025252909
0.0025700456
0.002610189
0.0026459422
0.0026784473
0.0027091016
0.0027386324
0.0027674937
0.0027960284
0.0028244668
0.0028529482
0.0028814863
0.0029100633
0.002938643
0.0029671829
0.0029956354
0.003023951
0.0030520812
0.003079982
0.0031076153
0.0031349485
0.0031619549
0.0031886126
0.0032149042
0.0032408166
0.0032663397
0.0032914667
0.0033161929
0.0033405161
0.0033644355
0.0033879518
0.0034110669
0.0034337826
0.0034561028
0.0034780251
0.0034995558
0.0035206988
0.0035414587
0.0035618406
0.0035818495
0.0036014908
0.0036207699
0.0036396924
0.0036582638
0.0036764899
0.0036943763
0.0037119288
0.0037291527
0.0037460538
0.0037626292
0.0037788832
0.0037948216
0.0038104505
0.003825776
0.0038408044
0.0038555417
0.0038699942
0.0038841679
0.0038980688
0.0039117027
0.0039250753
0.0039381923
0.0039510593
0.0039636816
0.0039760645
0.0039882129
0.0040001319
0.0040118261
0.0040233002
0.0040345588
0.0040456064
0.0040564472
0.0040670855
0.0040775253
0.0040877708
0.0040978257
0.004107694
0.0041173794
0.0041268854
0.0041362157
0.0041453736
0.0041543625
0.0041631857
0.0041718465
0.0041803478
0.0041886928
0.0041968845
0.0042049256
0.0042128191
0.0042205677
0.004228174
0.0042356407
0.0042429704
0.0042501656
0.0042572286
0.0042641619
0.0042709677
0.0042776484
0.0042842062
0.0042906432
0.0042969616
0.0043031634
0.0043092506
0.0043152252
0.0043210891
0.0043268443
0.0043324925
0.0043380356
0.0043434753
0.0043488133
0.0043540514
0.0043591912
0.0043642343
0.0043691823
0.0043740368
0.0043787992
0.004383471
0.0043880538
0.0043925489
0.0043969576
0.0044012815
0.0044055218
0.0044096799
0.0044137569
0.0044177543
0.0044216732
0.0044255148
0.0044292803
0.004432971
0.0044365879
0.0044401321
0.0044436048
0.0044470071
0.00445034
0.0044536046
0.0044568018
0.0044599327
0.0044629983
0.0044659995
0.0044689373
0.0044718126
0.0044746264
0.0044773795
0.0044800729
0.0044827074
0.0044852838
0.004487803
0.0044902659
0.0044926733
0.0044950258
0.0044973245
0.0044995699
0.0045017629
0.0045039043
0.0045059947
0.0045080349
0.0045100256
0.0045119675
0.0045138613
0.0045157078
0.0045175074
0.004519261
0.0045209691
0.0045226325
0.0045242517
0.0045258273
0.00452736
0.0045288504
0.004530299
0.0045317065
0.0045330734
0.0045344003
0.0045356878
0.0045369364
0.0045381466
0.004539319
0.0045404541
0.0045415524
0.0045426145
0.0045436408
0.0045446318
0.0045455882
0.0045465102
0.0045473984
0.0045482533
0.0045490754
0.0045498651
0.0045506229
0.0045513492
0.0045520447
0.0045527098
0.0045533453
0.0045539521
0.0045545337
0.0045550902
0.0045556482
0.0045561608
0.0045566624
0.0023479654
0.0024531426
0.0024770501
0.0024968536
0.0025240309
0.0025527413
0.0025823655
0.0026129678
0.002644202
0.0026758016
0.0027076071
0.002739492
0.002771336
0.0028030078
0.0028343842
0.0028653703
0.0028958807
0.002925842
0.0029551939
0.0029838876
0.0030118848
0.0030391561
0.0030656803
0.0030914426
0.0031164343
0.0031406509
0.0031640923
0.0031867614
0.0032086642
0.0032298086
0.0032502046
0.0032698638
0.003288799
0.0033070242
0.0033245549
0.0033414069
0.0033576068
0.0033731696
0.0033881126
0.0034024534
0.0034162097
0.0034293991
0.0034420392
0.003454147
0.0034657396
0.0034768335
0.0034874449
0.0034975897
0.0035072832
0.0035165404
0.0035253757
0.0035338043
0.0035418401
0.0035494961
0.0035567846
0.0035637177
0.0035703067
0.0035765629
0.0035824971
0.0035881197
0.0035934409
0.0035984704
0.0036032179
0.0036076926
0.0036119032
0.0036158586
0.0036195671
0.0036230366
0.003626275
0.0036292897
0.0036320879
0.0036346766
0.0036370624
0.003639252
0.0036412515
0.0036430669
0.0036447042
0.003646169
0.0036474668
0.0036486029
0.0036495823
0.00365041
0.0036510909
0.0036516295
0.0036520303
0.0036522978
0.003652436
0.0036524492
0.0036523411
0.0036521157
0.0036517766
0.0036513274
0.0036507717
0.0036501127
0.0036493537
0.003648498
0.0036475485
0.0036465083
0.0036453803
0.0036441672
0.0036428718
0.0036414967
0.0036400445
0.0036385176
0.0036369186
0.0036352496
0.0036335131
0.0036317112
0.0036298461
0.0036279198
0.0036259344
0.0036238919
0.0036217942
0.0036196431
0.0036174404
0.003615188
0.0036128875
0.0036105406
0.0036081488
0.0036057139
0.0036032372
0.0036007204
0.0035981648
0.0035955718
0.0035929428
0.0035902792
0.0035875823
0.0035848532
0.0035820933
0.0035793037
0.0035764855
0.00357364
0.0035707682
0.0035678712
0.00356495
0.0035620056
0.0035590391
0.0035560513
0.0035530433
0.0035500159
0.00354697
0.0035439065
0.0035408261
0.0035377299
0.0035346184
0.0035314925
0.003528353
0.0035252005
0.0035220359
0.0035188597
0.0035156727
0.0035124755
0.0035092687
0.003506053
0.003502829
0.0034995973
0.0034963584
0.0034931129
0.0034898614
0.0034866043
0.0034833422
0.0034800756
0.003476805
0.0034735308
0.0034702534
0.0034669735
0.0034636913
0.0034604073
0.003457122
0.0034538356
0.0034505486
0.0034472614
0.0034439744
0.0034406879
0.0034374021
0.0034341176
0.0034308346
0.0034275534
0.0034242743
0.0034209976
0.0034177237
0.0034144528
0.0034111851
0.003407921
0.0034046606
0.0034014044
0.0033981524
0.0033949049
0.0033916623
0.0033884247
0.0033851924
0.0033819657
0.003378745
0.0033755307
0.0033723234
0.0033691233
0.003365933
0.003362725
0.0033596615
0.0033557315
0.00226397
0.0023427103
0.0023076558
0.0022817217
0.0022700275
0.0022629834
0.0022601785
0.0022616531
0.0022666339
0.0022742985
0.0022839131
0.0022948347
0.00230652
0.0023185577
0.0023306415
0.0023425489
0.002354115
0.0023652236
0.0023757968
0.0023857849
0.0023951588
0.002403904
0.0024120174
0.0024195031
0.002426371
0.0024326349
0.0024383112
0.0024434184
0.0024479762
0.0024520052
0.0024555265
0.0024585616
0.0024611318
0.0024632587
0.0024649639
0.0024662674
0.0024671893
0.0024677497
0.0024679681
0.0024678628
0.0024674513
0.0024667505
0.002465777
0.0024645465
0.0024630742
0.0024613748
0.0024594623
0.00245735
0.0024550506
0.0024525763
0.0024499384
0.0024471483
0.0024442168
0.0024411542
0.00243797
0.002434673
0.0024312714
0.002427773
0.0024241852
0.002420515
0.0024167689
0.0024129532
0.0024090737
0.0024051361
0.0024011455
0.002397107
0.0023930252
0.0023889044
0.002384749
0.0023805626
0.002376349
0.0023721116
0.0023678535
0.0023635777
0.002359287
0.002354984
0.0023506712
0.0023463509
0.0023420251
0.0023376959
0.0023333651
0.0023290344
0.0023247055
0.0023203798
0.0023160587
0.0023117435
0.0023074354
0.0023031355
0.0022988448
0.0022945642
0.0022902947
0.002286037
0.0022817919
0.00227756
0.002273342
0.0022691384
0.0022649497
0.0022607764
0.002256619
0.0022524778
0.0022483532
0.0022442455
0.0022401549
0.0022360818
0.0022320263
0.0022279887
0.0022239691
0.0022199677
0.0022159846
0.00221202
0.0022080738
0.0022041462
0.0022002373
0.0021963471
0.0021924757
0.002188623
0.0021847891
0.0021809739
0.0021771776
0.0021734
0.0021696411
0.002165901
0.0021621795
0.0021584767
0.0021547924
0.0021511267
0.0021474795
0.0021438507
0.0021402403
0.0021366481
0.0021330742
0.0021295185
0.0021259809
0.0021224613
0.0021189596
0.0021154758
0.0021120098
0.0021085615
0.0021051308
0.0021017177
0.0020983221
0.0020949439
0.002091583
0.0020882393
0.0020849128
0.0020816034
0.0020783109
0.0020750354
0.0020717768
0.0020685348
0.0020653096
0.002062101
0.0020589089
0.0020557332
0.0020525739
0.0020494309
0.0020463041
0.0020431935
0.0020400989
0.0020370204
0.0020339577
0.0020309109
0.0020278799
0.0020248645
0.0020218648
0.0020188806
0.0020159119
0.0020129587
0.0020100207
0.0020070981
0.0020041906
0.0020012982
0.0019984209
0.0019955586
0.0019927113
0.0019898787
0.001987061
0.0019842579
0.0019814696
0.0019786957
0.0019759364
0.0019731916
0.0019704611
0.001967745
0.001965043
0.0019623553
0.0019596817
0.0019570222
0.0019543767
0.0019517453
0.0019491278
0.0019465243
0.001943935
0.0019413601
0.0019387999
0.0019362526
0.0019337296
0.0019311364
0.0019288425
0.0019247491
0.0019562663
0.0018525702
0.0016152525
0.0014257785
0.0012827601
0.0011687497
0.0010809862
0.0010165523
0.0009709301
0.0009397867
0.00091939539
0.00090669992
0.00089931621
0.00089546931
0.00089392474
0.000893851
0.00089467481
0.0008960097
0.00089760291
0.00089929152
0.00090097296
0.00090258495
0.00090409144
0.00090547323
0.00090672178
0.00090783522
0.00090881573
0.00090966784
0.00091039741
0.00091101093
0.00091151516
0.00091191681
0.00091222251
0.00091243858
0.00091257175
0.00091262674
0.00091260619
0.00091251561
0.00091236152
0.00091214836
0.00091187982
0.00091155935
0.00091119015
0.00091077523
0.00091031744
0.00090981945
0.00090928379
0.00090871281
0.00090810873
0.00090747358
0.00090680902
0.00090611679
0.00090539895
0.00090465752
0.00090389419
0.00090311041
0.0009023075
0.00090148666
0.00090064903
0.00089979573
0.00089892781
0.00089804627
0.00089715209
0.00089624617
0.00089532938
0.00089440256
0.00089346653
0.00089252204
0.00089156983
0.00089061058
0.00088964495
0.00088867353
0.00088769692
0.00088671564
0.00088573022
0.00088474114
0.00088374885
0.00088275378
0.00088175634
0.00088075692
0.00087975586
0.00087875351
0.00087775019
0.0008767462
0.00087574181
0.0008747373
0.0008737329
0.00087272885
0.00087172536
0.00087072264
0.00086972087
0.00086872023
0.00086772088
0.00086672297
0.00086572666
0.00086473206
0.0008637393
0.00086274849
0.00086175974
0.00086077315
0.0008597888
0.00085880678
0.00085782715
0.00085685
0.00085587538
0.00085490336
0.00085393398
0.0008529673
0.00085200335
0.00085104219
0.00085008384
0.00084912835
0.00084817573
0.00084722602
0.00084627925
0.00084533542
0.00084439457
0.00084345671
0.00084252185
0.00084159001
0.0008406612
0.00083973543
0.0008388127
0.00083789304
0.00083697643
0.0008360629
0.00083515244
0.00083424505
0.00083334075
0.00083243953
0.00083154139
0.00083064634
0.00082975437
0.00082886549
0.00082797969
0.00082709698
0.00082621736
0.00082534082
0.00082446737
0.000823597
0.00082272971
0.0008218655
0.00082100437
0.00082014632
0.00081929135
0.00081843945
0.00081759062
0.00081674487
0.00081590219
0.00081506258
0.00081422603
0.00081339256
0.00081256214
0.0008117348
0.00081091051
0.00081008929
0.00080927113
0.00080845603
0.00080764398
0.00080683499
0.00080602906
0.00080522617
0.00080442635
0.00080362957
0.00080283584
0.00080204516
0.00080125753
0.00080047294
0.00079969139
0.00079891288
0.00079813741
0.00079736498
0.00079659559
0.00079582923
0.00079506589
0.00079430559
0.00079354831
0.00079279406
0.00079204283
0.00079129461
0.00079054941
0.00078980723
0.00078906806
0.0007883319
0.00078759875
0.00078686861
0.00078614148
0.00078541737
0.00078469628
0.00078397824
0.00078326329
0.00078255149
0.00078184296
0.00078113777
0.00078043719
0.00077973442
0.00077906332
0.00077824721
0.00077792789
0.00077547745
)
;

boundaryField
{
    exteriorWall
    {
        type            calculated;
        value           nonuniform List<scalar> 
200
(
6.122141e-05
6.122141e-05
6.122141e-05
6.122141e-05
6.122141e-05
6.122141e-05
6.122141e-05
6.122141e-05
6.122141e-05
6.122141e-05
6.122141e-05
6.122141e-05
6.122141e-05
6.122141e-05
6.122141e-05
6.122141e-05
6.122141e-05
6.122141e-05
6.122141e-05
6.122141e-05
6.122141e-05
6.122141e-05
6.122141e-05
6.122141e-05
6.122141e-05
6.122141e-05
6.122141e-05
6.122141e-05
6.122141e-05
6.122141e-05
6.122141e-05
6.122141e-05
6.122141e-05
6.122141e-05
6.122141e-05
6.122141e-05
6.122141e-05
6.122141e-05
6.122141e-05
6.122141e-05
6.122141e-05
6.122141e-05
6.122141e-05
6.122141e-05
6.122141e-05
6.122141e-05
6.122141e-05
6.122141e-05
6.122141e-05
6.122141e-05
6.122141e-05
6.122141e-05
6.122141e-05
6.122141e-05
6.122141e-05
6.122141e-05
6.122141e-05
6.122141e-05
6.122141e-05
6.122141e-05
6.122141e-05
6.122141e-05
6.122141e-05
6.122141e-05
6.122141e-05
6.122141e-05
6.122141e-05
6.122141e-05
6.122141e-05
6.122141e-05
6.122141e-05
6.122141e-05
6.122141e-05
6.122141e-05
6.122141e-05
6.122141e-05
6.122141e-05
6.122141e-05
6.122141e-05
6.122141e-05
6.122141e-05
6.122141e-05
6.122141e-05
6.122141e-05
6.122141e-05
6.122141e-05
6.122141e-05
6.122141e-05
6.122141e-05
6.122141e-05
6.122141e-05
6.122141e-05
6.122141e-05
6.122141e-05
6.122141e-05
6.122141e-05
6.122141e-05
6.122141e-05
6.122141e-05
6.122141e-05
6.122141e-05
6.122141e-05
6.122141e-05
6.122141e-05
6.122141e-05
6.122141e-05
6.122141e-05
6.122141e-05
6.122141e-05
6.122141e-05
6.122141e-05
6.122141e-05
6.122141e-05
6.122141e-05
6.122141e-05
6.122141e-05
6.122141e-05
6.122141e-05
6.122141e-05
6.122141e-05
6.122141e-05
6.122141e-05
6.122141e-05
6.122141e-05
6.122141e-05
6.122141e-05
6.122141e-05
6.122141e-05
6.122141e-05
6.122141e-05
6.122141e-05
6.122141e-05
6.122141e-05
6.122141e-05
6.122141e-05
6.122141e-05
6.122141e-05
6.122141e-05
6.122141e-05
6.122141e-05
6.122141e-05
6.122141e-05
6.122141e-05
6.122141e-05
6.122141e-05
6.122141e-05
6.122141e-05
6.122141e-05
6.122141e-05
6.122141e-05
6.122141e-05
6.122141e-05
6.122141e-05
6.122141e-05
6.122141e-05
6.122141e-05
6.122141e-05
6.122141e-05
6.122141e-05
6.122141e-05
6.122141e-05
6.122141e-05
6.122141e-05
6.122141e-05
6.122141e-05
6.122141e-05
6.122141e-05
6.122141e-05
6.122141e-05
6.122141e-05
6.122141e-05
6.122141e-05
6.122141e-05
6.122141e-05
6.122141e-05
6.122141e-05
6.122141e-05
6.122141e-05
6.122141e-05
6.122141e-05
6.122141e-05
6.122141e-05
6.122141e-05
6.122141e-05
6.122141e-05
6.122141e-05
6.122141e-05
6.122141e-05
6.122141e-05
6.122141e-05
6.122141e-05
6.122141e-05
6.122141e-05
6.122141e-05
6.122141e-05
6.122141e-05
6.122141e-05
6.122141e-05
6.122141e-05
6.122141e-05
)
;
    }
    inlet
    {
        type            calculated;
        value           uniform 2.6258311e-05;
    }
    outlet
    {
        type            calculated;
        value           nonuniform List<scalar> 6(5.8697264e-05 5.8856333e-05 5.9047702e-05 5.9223408e-05 5.9399047e-05 5.9618673e-05);
    }
    walls
    {
        type            calculated;
        value           nonuniform List<scalar> 0();
    }
    frontAndBack
    {
        type            empty;
    }
    frontAndBack_pos
    {
        type            wedge;
    }
    frontAndBack_neg
    {
        type            wedge;
    }
}


// ************************************************************************* //
