/*--------------------------------*- C++ -*----------------------------------*\
  =========                 |
  \\      /  F ield         | OpenFOAM: The Open Source CFD Toolbox
   \\    /   O peration     | Website:  https://openfoam.org
    \\  /    A nd           | Version:  10
     \\/     M anipulation  |
\*---------------------------------------------------------------------------*/
FoamFile
{
    format      ascii;
    class       volScalarField;
    location    "700/FLUID";
    object      Bi;
}
// * * * * * * * * * * * * * * * * * * * * * * * * * * * * * * * * * * * * * //

dimensions      [0 0 0 0 0 0 0];

internalField   nonuniform List<scalar> 
1200
(
0.4369148
0.43365561
0.42981282
0.42654296
0.42389432
0.42185665
0.42042489
0.41954273
0.41913801
0.41914255
0.41949459
0.4201397
0.42103113
0.42213064
0.42340613
0.42483648
0.42639844
0.428065
0.42981295
0.43162162
0.43347288
0.43535106
0.43724263
0.43913603
0.4410214
0.44289043
0.44473619
0.44655293
0.44833597
0.45008153
0.45178667
0.45344914
0.45506728
0.45663999
0.45816657
0.45964674
0.4610805
0.46246815
0.46381022
0.4651074
0.46636054
0.4675706
0.46873863
0.46986575
0.47095311
0.47200192
0.4730134
0.47398878
0.4749293
0.47583618
0.47671064
0.47755394
0.47836726
0.47915175
0.4799085
0.48063858
0.48134298
0.4820227
0.48267867
0.48331179
0.48392294
0.48451296
0.48508264
0.4856328
0.48616419
0.48667751
0.48717339
0.48765242
0.48811522
0.48856237
0.48899442
0.48941193
0.4898154
0.49020536
0.49058227
0.49094661
0.49129881
0.49163932
0.49196854
0.49228685
0.49259465
0.49289228
0.4931801
0.49345842
0.49372758
0.49398787
0.49423958
0.49448299
0.49471837
0.49494597
0.49516604
0.49537881
0.49558451
0.49578336
0.49597555
0.49616129
0.49634078
0.49651419
0.49668171
0.4968435
0.49699972
0.49715054
0.49729611
0.49743656
0.49757205
0.49770271
0.49782867
0.49795006
0.49806699
0.49817959
0.49828797
0.49839223
0.4984925
0.49858886
0.49868142
0.49877027
0.49885552
0.49893724
0.49901552
0.49909046
0.49916212
0.4992306
0.49929597
0.4993583
0.49941767
0.49947414
0.49952779
0.49957868
0.49962688
0.49967246
0.49971546
0.49975595
0.499794
0.49982964
0.49986295
0.49989398
0.49992276
0.49994937
0.49997384
0.49999623
0.50001657
0.50003493
0.50005133
0.50006583
0.50007847
0.50008928
0.50009831
0.50010561
0.50011119
0.50011512
0.50011741
0.50011811
0.50011725
0.50011487
0.500111
0.50010566
0.50009891
0.50009075
0.50008123
0.50007038
0.50005822
0.50004478
0.50003009
0.50001418
0.49999708
0.4999788
0.49995938
0.49993884
0.4999172
0.49989449
0.49987074
0.49984596
0.49982017
0.49979341
0.49976569
0.49973702
0.49970744
0.49967696
0.49964561
0.49961339
0.49958034
0.49954646
0.49951178
0.49947632
0.49944009
0.49940311
0.49936539
0.49932696
0.49928783
0.49924802
0.49920754
0.49916643
0.4991247
0.49908238
0.49903957
0.4989962
0.49895308
0.49890734
0.498872
0.49878424
0.43661722
0.43330963
0.43086576
0.42970112
0.42937712
0.42972242
0.43060436
0.43187882
0.43342976
0.43516908
0.43702862
0.43895663
0.44091489
0.44288589
0.44484392
0.44676222
0.44862538
0.45042669
0.45216274
0.4538326
0.45543698
0.45697752
0.4584565
0.45987649
0.46124018
0.46255029
0.46380947
0.46502026
0.46618508
0.46730619
0.46838573
0.46942569
0.47042793
0.4713942
0.47232612
0.47322523
0.47409305
0.47493094
0.47574017
0.47652189
0.47727719
0.47800712
0.47871266
0.47939477
0.48005435
0.48069226
0.48130933
0.48190633
0.48248402
0.4830431
0.48358429
0.48410835
0.48461576
0.48510702
0.48558262
0.48604307
0.48648888
0.48692054
0.48733854
0.48774337
0.48813548
0.48851533
0.48888334
0.48923993
0.48958549
0.48992045
0.4902452
0.49056011
0.49086554
0.49116181
0.49144924
0.49172811
0.49199872
0.49226131
0.49251616
0.49276349
0.49300356
0.49323657
0.49346275
0.4936823
0.49389541
0.49410229
0.49430311
0.49449805
0.49468727
0.49487095
0.49504925
0.4952223
0.49539026
0.49555328
0.49571148
0.495865
0.49601396
0.4961585
0.49629872
0.49643475
0.49656669
0.49669465
0.49681874
0.49693906
0.49705569
0.49716875
0.49727831
0.49738447
0.49748731
0.49758692
0.49768338
0.49777676
0.49786715
0.49795461
0.49803921
0.49812104
0.49820014
0.4982766
0.49835047
0.49842182
0.4984907
0.49855717
0.4986213
0.49868314
0.49874273
0.49880015
0.49885542
0.49890861
0.49895977
0.49900894
0.49905616
0.49910149
0.49914496
0.49918663
0.49922652
0.49926469
0.49930117
0.499336
0.49936922
0.49940086
0.49943096
0.49945956
0.49948669
0.49951239
0.49953668
0.4995596
0.49958119
0.49960146
0.49962045
0.4996382
0.49965472
0.49967005
0.49968421
0.49969723
0.49970914
0.49971996
0.49972972
0.49973843
0.49974614
0.49975285
0.49975859
0.49976338
0.49976725
0.49977021
0.4997723
0.49977352
0.49977389
0.49977345
0.49977219
0.49977016
0.49976736
0.4997638
0.49975952
0.49975452
0.49974883
0.49974245
0.49973541
0.49972772
0.4997194
0.49971046
0.49970091
0.49969077
0.49968006
0.49966879
0.49965697
0.49964462
0.49963174
0.49961836
0.49960448
0.49959011
0.49957528
0.49955998
0.49954424
0.49952806
0.49951146
0.49949445
0.49947704
0.49945924
0.49944109
0.49942249
0.4994039
0.49938307
0.49936847
0.49931356
0.43772541
0.43654485
0.43855345
0.44189661
0.44548167
0.44908128
0.45253727
0.45574674
0.45867616
0.46132424
0.46370318
0.46583228
0.46773328
0.46942729
0.47093601
0.47228541
0.4734975
0.47459133
0.47558337
0.47648779
0.47731675
0.4780806
0.47878819
0.47944708
0.48006372
0.48064361
0.48119147
0.48171131
0.48220657
0.48268019
0.48313467
0.48357217
0.48399452
0.4844033
0.48479989
0.48518548
0.48556182
0.48592934
0.48628868
0.48664042
0.48698509
0.48732316
0.48765507
0.48798119
0.48830185
0.48861733
0.48892788
0.48923373
0.48953506
0.48983207
0.49012487
0.49041358
0.4906985
0.49097984
0.49125777
0.49153238
0.49180376
0.49207197
0.49233705
0.49259904
0.49285799
0.49311393
0.49336687
0.49361686
0.4938639
0.49410802
0.49434925
0.49458761
0.49482315
0.4950559
0.4952859
0.49551318
0.49573778
0.49595973
0.49617906
0.49639583
0.49661005
0.49682176
0.49703101
0.49723782
0.49744223
0.49764427
0.49784398
0.4980414
0.49823656
0.4984295
0.49862024
0.49880883
0.4989953
0.49917968
0.499362
0.49954231
0.49972063
0.499897
0.50007145
0.50024401
0.50041471
0.5005836
0.50075069
0.50091602
0.50107962
0.50124151
0.50140174
0.50156033
0.50171731
0.5018727
0.50202654
0.50217885
0.50232966
0.502479
0.50262688
0.50277335
0.50291842
0.50306212
0.50320448
0.50334551
0.50348524
0.50362369
0.5037609
0.50389687
0.50403163
0.50416521
0.50429762
0.50442889
0.50455903
0.50468807
0.50481602
0.50494291
0.50506875
0.50519356
0.50531735
0.50544016
0.50556199
0.50568287
0.5058028
0.5059218
0.5060399
0.5061571
0.50627343
0.50638889
0.5065035
0.50661728
0.50673024
0.5068424
0.50695376
0.50706434
0.50717416
0.50728323
0.50739156
0.50749915
0.50760604
0.50771222
0.5078177
0.50792251
0.50802665
0.50813013
0.50823296
0.50833515
0.50843671
0.50853766
0.508638
0.50873774
0.50883689
0.50893547
0.50903347
0.50913091
0.5092278
0.50932415
0.50941996
0.50951524
0.50961
0.50970425
0.50979799
0.50989124
0.509984
0.51007628
0.51016808
0.51025941
0.51035028
0.51044069
0.51053065
0.51062018
0.51070926
0.51079792
0.51088615
0.51097396
0.51106136
0.51114835
0.51123494
0.51132113
0.51140692
0.51149233
0.51157735
0.51166196
0.51174617
0.51182987
0.51191296
0.51199416
0.51207253
0.51213474
0.44403404
0.44824581
0.45622219
0.46348606
0.46932952
0.47412107
0.47803197
0.48120349
0.48378127
0.48588525
0.48760907
0.48902671
0.4901962
0.49115587
0.4919502
0.49261463
0.49317687
0.49365895
0.49407855
0.49444994
0.49478468
0.49509219
0.4953801
0.4956546
0.49592075
0.49618263
0.49644351
0.49670604
0.49697231
0.49724396
0.49752226
0.49780817
0.49810237
0.49840534
0.49871734
0.49903841
0.49936758
0.49970523
0.50005133
0.50040572
0.50076813
0.50113826
0.50151572
0.50190015
0.50229114
0.50268828
0.50309117
0.5034994
0.50391257
0.50433029
0.50475215
0.50517765
0.50560642
0.50603814
0.50647254
0.50690934
0.5073483
0.50778918
0.50823173
0.50867573
0.50912095
0.50956719
0.51001425
0.51046193
0.51091003
0.5113584
0.51180685
0.51225524
0.51270342
0.51315127
0.51359865
0.51404547
0.5144916
0.51493696
0.51538145
0.51582499
0.51626749
0.51670889
0.51714912
0.5175881
0.51802579
0.51846213
0.51889706
0.51933055
0.51976255
0.52019301
0.52062191
0.5210492
0.52147487
0.52189887
0.52232119
0.5227418
0.52316069
0.52357782
0.52399319
0.52440679
0.52481858
0.52522858
0.52563675
0.52604311
0.52644762
0.5268503
0.52725113
0.52765011
0.52804724
0.52844251
0.52883592
0.52922746
0.52961715
0.53000497
0.53039093
0.53077503
0.53115728
0.53153766
0.53191619
0.53229287
0.5326677
0.53304069
0.53341183
0.53378114
0.53414862
0.53451427
0.5348781
0.53524011
0.53560031
0.5359587
0.5363153
0.5366701
0.53702311
0.53737435
0.5377238
0.53807149
0.53841742
0.53876159
0.53910402
0.5394447
0.53978365
0.54012087
0.54045637
0.54079016
0.54112225
0.54145263
0.54178133
0.54210834
0.54243367
0.54275733
0.54307933
0.54339968
0.54371838
0.54403544
0.54435087
0.54466468
0.54497687
0.54528745
0.54559642
0.5459038
0.5462096
0.54651382
0.54681646
0.54711754
0.54741706
0.54771503
0.54801146
0.54830636
0.54859973
0.54889157
0.54918191
0.54947074
0.54975807
0.55004392
0.55032828
0.55061116
0.55089258
0.55117253
0.55145104
0.55172809
0.55200371
0.55227789
0.55255065
0.55282199
0.55309193
0.55336046
0.55362759
0.55389333
0.5541577
0.55442068
0.5546823
0.55494256
0.55520146
0.55545901
0.55571522
0.55597008
0.5562236
0.55647577
0.55672658
0.55697601
0.55722386
0.5574709
0.55770718
0.55796693
0.45894244
0.46932052
0.48276708
0.49345475
0.50160864
0.50818437
0.51350399
0.51778429
0.52124029
0.52405236
0.52636566
0.52829618
0.52993491
0.53134677
0.53258547
0.5336938
0.5347051
0.53564489
0.53653256
0.5373829
0.53820726
0.53901436
0.53981089
0.54060204
0.5413918
0.54218322
0.54297861
0.54377969
0.54458772
0.54540356
0.54622778
0.54706067
0.54790232
0.54875266
0.54961143
0.55047831
0.55135257
0.55223383
0.5531217
0.55401575
0.5549155
0.55582044
0.55673001
0.55764365
0.55856079
0.55948085
0.56040329
0.56132756
0.56225312
0.56317946
0.56410609
0.56503246
0.56595804
0.5668824
0.56780515
0.56872592
0.56964441
0.57056029
0.5714733
0.57238314
0.57328956
0.57419232
0.5750912
0.57598597
0.57687643
0.57776239
0.57864368
0.57952013
0.58039161
0.58125799
0.58211914
0.58297497
0.58382538
0.58467029
0.58550963
0.58634334
0.58717136
0.58799365
0.58881017
0.5896209
0.5904258
0.59122486
0.59201807
0.59280543
0.59358693
0.59436257
0.59513237
0.59589634
0.59665449
0.59740685
0.59815343
0.59889427
0.59962939
0.60035884
0.60108263
0.60180081
0.60251341
0.60322048
0.60392206
0.60461819
0.60530891
0.60599427
0.60667432
0.60734911
0.60801867
0.60868307
0.60934235
0.60999656
0.61064575
0.61128996
0.61192926
0.61256369
0.6131933
0.61381814
0.61443826
0.61505371
0.61566455
0.61627082
0.61687256
0.61746984
0.6180627
0.61865118
0.61923533
0.61981521
0.62039086
0.62096232
0.62152965
0.62209288
0.62265206
0.62320724
0.50167004
0.502024
0.50237534
0.50272408
0.50307025
0.50341389
0.50375501
0.50409366
0.50442985
0.50476362
0.50509498
0.50542398
0.50575062
0.50607495
0.50639698
0.50671674
0.50703425
0.50734954
0.50766263
0.50797354
0.5082823
0.50858893
0.50889345
0.50919588
0.50949625
0.50979457
0.51009087
0.51038517
0.51067748
0.51096782
0.51125623
0.5115427
0.51182727
0.51210995
0.51239076
0.51266972
0.51294684
0.51322214
0.51349565
0.51376737
0.51403732
0.51430552
0.51457198
0.51483673
0.51509977
0.51536112
0.5156208
0.51587882
0.51613519
0.51638994
0.51664307
0.5168946
0.51714453
0.5173929
0.5176397
0.51788496
0.51812867
0.51837087
0.51861155
0.51885073
0.51908842
0.51932462
0.51955933
0.51979255
0.52002425
0.52025456
0.52048268
0.52071417
0.52092415
0.52123557
0.49233959
0.51826938
0.55231708
0.58327698
0.6103532
0.50875082
0.52230047
0.53340759
0.54218717
0.54892352
0.55398052
0.55773606
0.56053097
0.56264127
0.56427383
0.56557636
0.566655
0.56758393
0.56841374
0.56917868
0.56990178
0.57059843
0.57127886
0.57194987
0.57261594
0.57328003
0.57394404
0.57460918
0.57527617
0.57594539
0.576617
0.57729098
0.57796718
0.57864538
0.57932519
0.58000641
0.58068891
0.58137229
0.58205601
0.58273976
0.5834233
0.58410638
0.58478873
0.58547009
0.5861502
0.58682879
0.58750561
0.58818042
0.58885299
0.58952311
0.59019061
0.59085526
0.59151682
0.59217504
0.59282976
0.59348084
0.59412818
0.5947717
0.59541129
0.59604689
0.5966784
0.59730575
0.59792887
0.5985477
0.59916218
0.59977224
0.60037784
0.60097893
0.60157547
0.60216743
0.60275479
0.60333752
0.6039156
0.60448904
0.60505783
0.60562195
0.60618143
0.60673626
0.60728645
0.60783202
0.60837299
0.60890936
0.60944116
0.60996842
0.61049116
0.6110094
0.61152318
0.61203253
0.61253748
0.61303806
0.6135343
0.61402625
0.61451394
0.61499741
0.61547671
0.61595185
0.6164229
0.61688989
0.61735287
0.61781186
0.61826692
0.6187181
0.61916542
0.61960894
0.6200487
0.62048474
0.62091711
0.62134584
0.62177098
0.62219257
0.62261066
0.62302529
0.6234365
0.62384433
0.62424882
0.62465001
0.62504795
0.62544267
0.62583422
0.62622263
0.62660794
0.62699019
0.62736942
0.62774567
0.62811897
0.62848936
0.62885687
0.62922154
0.62958341
0.62994251
0.63029887
0.63065253
0.63100352
0.63135187
0.63169762
0.63204079
0.63238141
0.63271952
0.63305515
0.63338832
0.63371907
0.63404742
0.6343734
0.63469703
0.63501835
0.63533738
0.63565414
0.63596867
0.63628098
0.6365911
0.63689906
0.63720487
0.63750857
0.63781017
0.6381097
0.63840717
0.63870262
0.63899606
0.63928751
0.63957699
0.63986453
0.64015013
0.64043383
0.64071565
0.64099559
0.64127368
0.64154993
0.64182438
0.64209702
0.64236788
0.64263698
0.64290433
0.64316995
0.64343386
0.64369607
0.6439566
0.64421545
0.64447266
0.64472823
0.64498217
0.64523451
0.64548526
0.64573442
0.64598201
0.64622806
0.64647256
0.64671553
0.64695698
0.64719693
0.64743538
0.64767233
0.64790778
0.64814172
0.64837413
0.64860477
0.64883507
0.64905774
0.64931009
0.64945294
0.65003942
)
;

boundaryField
{
    exteriorWall
    {
        type            calculated;
        value           uniform 0;
    }
    inlet
    {
        type            calculated;
        value           uniform 0;
    }
    outlet
    {
        type            calculated;
        value           uniform 0;
    }
    walls
    {
        type            calculated;
        value           nonuniform List<scalar> 0();
    }
    frontAndBack
    {
        type            empty;
    }
    frontAndBack_pos
    {
        type            wedge;
    }
    frontAndBack_neg
    {
        type            wedge;
    }
}


// ************************************************************************* //
