/*--------------------------------*- C++ -*----------------------------------*\
  =========                 |
  \\      /  F ield         | OpenFOAM: The Open Source CFD Toolbox
   \\    /   O peration     | Website:  https://openfoam.org
    \\  /    A nd           | Version:  10
     \\/     M anipulation  |
\*---------------------------------------------------------------------------*/
FoamFile
{
    format      ascii;
    class       volScalarField;
    location    "700/FLUID";
    object      CpEff;
}
// * * * * * * * * * * * * * * * * * * * * * * * * * * * * * * * * * * * * * //

dimensions      [0 2 -2 -1 0 0 0];

internalField   nonuniform List<scalar> 
1200
(
850.32888
850.32899
850.32919
850.32949
850.3299
850.33043
850.33105
850.33178
850.33261
850.33352
850.33451
850.33558
850.33673
850.33794
850.3392
850.34052
850.34189
850.3433
850.34474
850.34619
850.34765
850.34911
850.35056
850.35198
850.35339
850.35476
850.3561
850.3574
850.35865
850.35986
850.36102
850.36213
850.36319
850.36419
850.36515
850.36605
850.36691
850.36771
850.36847
850.36917
850.36983
850.37045
850.37102
850.37156
850.37205
850.3725
850.37292
850.3733
850.37365
850.37397
850.37426
850.37452
850.37475
850.37495
850.37514
850.3753
850.37543
850.37555
850.37565
850.37573
850.37579
850.37583
850.37586
850.37588
850.37588
850.37587
850.37585
850.37582
850.37577
850.37572
850.37565
850.37558
850.3755
850.37541
850.37532
850.37522
850.37511
850.375
850.37488
850.37476
850.37463
850.3745
850.37436
850.37423
850.37408
850.37394
850.37379
850.37364
850.37349
850.37334
850.37318
850.37302
850.37286
850.3727
850.37254
850.37238
850.37222
850.37206
850.37189
850.37173
850.37157
850.3714
850.37124
850.37107
850.37091
850.37075
850.37059
850.37042
850.37026
850.3701
850.36994
850.36978
850.36962
850.36946
850.3693
850.36915
850.36899
850.36884
850.36868
850.36853
850.36838
850.36823
850.36808
850.36793
850.36779
850.36764
850.36749
850.36735
850.36721
850.36707
850.36693
850.36679
850.36665
850.36652
850.36638
850.36625
850.36612
850.36599
850.36586
850.36573
850.36561
850.36548
850.36536
850.36523
850.36511
850.36499
850.36487
850.36476
850.36464
850.36452
850.36441
850.3643
850.36419
850.36408
850.36397
850.36386
850.36376
850.36365
850.36355
850.36344
850.36334
850.36324
850.36314
850.36305
850.36295
850.36285
850.36276
850.36267
850.36257
850.36248
850.36239
850.3623
850.36222
850.36213
850.36204
850.36196
850.36187
850.36179
850.36171
850.36163
850.36155
850.36147
850.36139
850.36132
850.36124
850.36116
850.36109
850.36102
850.36095
850.36087
850.3608
850.36073
850.36066
850.3606
850.36053
850.36046
850.3604
850.36033
850.36027
850.36022
850.32912
850.32965
850.33046
850.33154
850.33283
850.33429
850.33587
850.33754
850.33925
850.341
850.34276
850.34451
850.34624
850.34794
850.34961
850.35123
850.35279
850.3543
850.35574
850.35712
850.35843
850.35968
850.36087
850.36199
850.36306
850.36406
850.36502
850.36591
850.36676
850.36755
850.36829
850.36899
850.36964
850.37025
850.37082
850.37135
850.37184
850.37229
850.37271
850.3731
850.37345
850.37378
850.37408
850.37434
850.37459
850.37481
850.375
850.37517
850.37532
850.37545
850.37557
850.37566
850.37574
850.3758
850.37585
850.37588
850.37589
850.3759
850.37589
850.37587
850.37584
850.3758
850.37575
850.37569
850.37563
850.37555
850.37547
850.37538
850.37528
850.37518
850.37507
850.37496
850.37484
850.37472
850.3746
850.37447
850.37433
850.37419
850.37405
850.37391
850.37376
850.37362
850.37347
850.37331
850.37316
850.373
850.37285
850.37269
850.37253
850.37237
850.37221
850.37205
850.37189
850.37173
850.37157
850.3714
850.37124
850.37108
850.37092
850.37076
850.37059
850.37043
850.37027
850.37011
850.36995
850.36979
850.36964
850.36948
850.36932
850.36917
850.36901
850.36886
850.36871
850.36856
850.3684
850.36826
850.36811
850.36796
850.36781
850.36767
850.36752
850.36738
850.36724
850.3671
850.36696
850.36682
850.36669
850.36655
850.36642
850.36629
850.36615
850.36602
850.36589
850.36577
850.36564
850.36552
850.36539
850.36527
850.36515
850.36503
850.36491
850.36479
850.36468
850.36456
850.36445
850.36434
850.36422
850.36411
850.36401
850.3639
850.36379
850.36369
850.36358
850.36348
850.36338
850.36328
850.36318
850.36308
850.36299
850.36289
850.3628
850.3627
850.36261
850.36252
850.36243
850.36234
850.36225
850.36216
850.36208
850.36199
850.36191
850.36183
850.36174
850.36166
850.36158
850.3615
850.36143
850.36135
850.36127
850.3612
850.36112
850.36105
850.36098
850.36091
850.36083
850.36076
850.3607
850.36063
850.36056
850.36049
850.36043
850.36036
850.3603
850.36024
850.36017
850.36011
850.36005
850.35999
850.35993
850.35989
850.33023
850.33229
850.33492
850.33786
850.3409
850.34387
850.34669
850.3493
850.3517
850.35388
850.35587
850.35767
850.3593
850.36078
850.36213
850.36336
850.36448
850.36551
850.36645
850.36732
850.36811
850.36885
850.36952
850.37015
850.37072
850.37126
850.37175
850.3722
850.37261
850.373
850.37335
850.37367
850.37397
850.37424
850.37448
850.3747
850.3749
850.37508
850.37523
850.37537
850.3755
850.3756
850.37569
850.37576
850.37582
850.37586
850.37589
850.37591
850.37592
850.37592
850.3759
850.37588
850.37584
850.3758
850.37575
850.37569
850.37562
850.37554
850.37546
850.37537
850.37528
850.37518
850.37507
850.37496
850.37485
850.37473
850.3746
850.37448
850.37435
850.37421
850.37407
850.37394
850.37379
850.37365
850.3735
850.37335
850.3732
850.37305
850.3729
850.37274
850.37259
850.37243
850.37227
850.37211
850.37195
850.37179
850.37163
850.37147
850.37131
850.37115
850.37099
850.37083
850.37067
850.37051
850.37036
850.3702
850.37004
850.36988
850.36973
850.36957
850.36941
850.36926
850.36911
850.36895
850.3688
850.36865
850.3685
850.36835
850.3682
850.36805
850.36791
850.36776
850.36762
850.36748
850.36734
850.3672
850.36706
850.36692
850.36678
850.36665
850.36651
850.36638
850.36625
850.36612
850.36599
850.36586
850.36573
850.36561
850.36548
850.36536
850.36524
850.36512
850.365
850.36488
850.36476
850.36465
850.36454
850.36442
850.36431
850.3642
850.36409
850.36398
850.36388
850.36377
850.36367
850.36356
850.36346
850.36336
850.36326
850.36316
850.36306
850.36297
850.36287
850.36278
850.36268
850.36259
850.3625
850.36241
850.36232
850.36223
850.36215
850.36206
850.36198
850.36189
850.36181
850.36173
850.36165
850.36157
850.36149
850.36141
850.36133
850.36126
850.36118
850.36111
850.36104
850.36096
850.36089
850.36082
850.36075
850.36068
850.36061
850.36055
850.36048
850.36042
850.36035
850.36029
850.36022
850.36016
850.3601
850.36004
850.35998
850.35992
850.35986
850.3598
850.35974
850.35969
850.35963
850.35958
850.35953
850.35948
850.33324
850.33826
850.34332
850.34792
850.35188
850.35522
850.358
850.36034
850.3623
850.36397
850.3654
850.36663
850.3677
850.36864
850.36946
850.37019
850.37084
850.37141
850.37193
850.3724
850.37282
850.3732
850.37355
850.37386
850.37414
850.37439
850.37462
850.37483
850.37501
850.37517
850.37532
850.37544
850.37555
850.37565
850.37573
850.3758
850.37585
850.37589
850.37592
850.37594
850.37594
850.37594
850.37592
850.3759
850.37587
850.37583
850.37578
850.37573
850.37566
850.37559
850.37551
850.37543
850.37534
850.37525
850.37515
850.37504
850.37493
850.37482
850.3747
850.37458
850.37445
850.37433
850.37419
850.37406
850.37392
850.37378
850.37364
850.37349
850.37335
850.3732
850.37305
850.3729
850.37274
850.37259
850.37243
850.37228
850.37212
850.37196
850.3718
850.37165
850.37149
850.37133
850.37117
850.37101
850.37085
850.37069
850.37053
850.37038
850.37022
850.37006
850.3699
850.36975
850.36959
850.36944
850.36928
850.36913
850.36898
850.36882
850.36867
850.36852
850.36837
850.36823
850.36808
850.36793
850.36779
850.36764
850.3675
850.36736
850.36722
850.36708
850.36694
850.3668
850.36667
850.36653
850.3664
850.36627
850.36614
850.36601
850.36588
850.36575
850.36563
850.3655
850.36538
850.36526
850.36513
850.36501
850.3649
850.36478
850.36466
850.36455
850.36443
850.36432
850.36421
850.3641
850.36399
850.36389
850.36378
850.36367
850.36357
850.36347
850.36337
850.36327
850.36317
850.36307
850.36297
850.36288
850.36278
850.36269
850.3626
850.3625
850.36241
850.36232
850.36224
850.36215
850.36206
850.36198
850.36189
850.36181
850.36173
850.36165
850.36157
850.36149
850.36141
850.36133
850.36126
850.36118
850.36111
850.36103
850.36096
850.36089
850.36082
850.36075
850.36068
850.36061
850.36054
850.36048
850.36041
850.36034
850.36028
850.36022
850.36015
850.36009
850.36003
850.35997
850.35991
850.35985
850.35979
850.35974
850.35968
850.35962
850.35957
850.35951
850.35946
850.35941
850.35935
850.3593
850.35925
850.3592
850.35915
850.35911
850.33868
850.34666
850.35281
850.35746
850.36099
850.36369
850.36579
850.36745
850.36879
850.36987
850.37077
850.37152
850.37216
850.37271
850.37317
850.37358
850.37393
850.37423
850.3745
850.37474
850.37494
850.37512
850.37528
850.37542
850.37554
850.37564
850.37572
850.37579
850.37585
850.3759
850.37593
850.37595
850.37596
850.37596
850.37595
850.37594
850.37591
850.37588
850.37583
850.37578
850.37573
850.37566
850.37559
850.37552
850.37543
850.37534
850.37525
850.37515
850.37505
850.37494
850.37483
850.37471
850.37459
850.37447
850.37434
850.37421
850.37408
850.37394
850.3738
850.37366
850.37351
850.37337
850.37322
850.37307
850.37292
850.37277
850.37262
850.37246
850.37231
850.37215
850.37199
850.37183
850.37168
850.37152
850.37136
850.3712
850.37104
850.37088
850.37072
850.37056
850.3704
850.37025
850.37009
850.36993
850.36977
850.36962
850.36946
850.36931
850.36915
850.369
850.36885
850.36869
850.36854
850.36839
850.36824
850.36809
850.36795
850.3678
850.36766
850.36751
850.36737
850.36723
850.36709
850.36695
850.36681
850.36667
850.36654
850.3664
850.36627
850.36614
850.36601
850.36588
850.36575
850.36562
850.3655
850.36537
850.36525
850.36513
850.36501
850.36489
850.36477
850.36465
850.36454
850.36442
850.36431
850.3642
850.36409
850.36398
850.36387
850.36376
850.36366
850.36355
850.36345
850.36335
850.36325
850.36315
850.36305
850.36295
850.36285
850.36276
850.36266
850.36257
850.36248
850.36239
850.3623
850.36221
850.36212
850.36203
850.36195
850.36186
850.36178
850.3617
850.36162
850.36154
850.36146
850.36138
850.3613
850.36122
850.36115
850.36107
850.361
850.36093
850.36085
850.36078
850.36071
850.36064
850.36057
850.36051
850.36044
850.36037
850.36031
850.36024
850.36018
850.36012
850.36006
850.35999
850.35993
850.35987
850.35982
850.35976
850.3597
850.35964
850.35959
850.35953
850.35948
850.35942
850.35937
850.35932
850.35926
850.35921
850.35916
850.35911
850.35906
850.35901
850.35896
850.35892
850.35887
850.35882
850.35878
850.35874
850.34623
850.35533
850.36125
850.36529
850.3681
850.37009
850.37153
850.37258
850.37336
850.37395
850.3744
850.37475
850.37503
850.37525
850.37543
850.37558
850.37569
850.37578
850.37586
850.37591
850.37595
850.37598
850.37599
850.376
850.37599
850.37597
850.37595
850.37591
850.37587
850.37583
850.37577
850.37571
850.37564
850.37557
850.37549
850.37541
850.37532
850.37522
850.37512
850.37502
850.37491
850.3748
850.37468
850.37456
850.37444
850.37431
850.37418
850.37405
850.37392
850.37378
850.37364
850.37349
850.37335
850.3732
850.37305
850.3729
850.37275
850.3726
850.37245
850.37229
850.37213
850.37198
850.37182
850.37166
850.3715
850.37134
850.37118
850.37102
850.37086
850.3707
850.37054
850.37038
850.37023
850.37007
850.36991
850.36975
850.36959
850.36944
850.36928
850.36912
850.36897
850.36881
850.36866
850.36851
850.36836
850.36821
850.36806
850.36791
850.36776
850.36762
850.36747
850.36733
850.36718
850.36704
850.3669
850.36676
850.36662
850.36649
850.36635
850.36622
850.36608
850.36595
850.36582
850.36569
850.36556
850.36544
850.36531
850.36519
850.36506
850.36494
850.36482
850.3647
850.36458
850.36447
850.36435
850.36424
850.36413
850.36401
850.3639
850.3638
850.36369
850.36358
850.36348
850.36337
850.36327
850.36317
850.36307
850.36297
850.36287
850.36277
850.36268
850.36258
850.36249
850.3624
850.36231
850.36222
850.36213
850.36204
850.36195
850.36187
850.36178
850.3617
850.36161
850.36153
850.36145
850.36137
850.36129
850.36122
850.36114
850.36106
850.36099
850.36091
850.36084
850.36077
850.3607
850.36063
850.36056
850.36049
850.36042
850.36036
850.36029
850.36022
850.36016
850.3601
850.36003
850.35997
850.35991
850.35985
850.35979
850.35973
850.35967
850.35962
850.35956
850.3595
850.35945
850.35939
850.35934
850.35929
850.35924
850.35918
850.35913
850.35908
850.35903
850.35898
850.35893
850.35889
850.35884
850.35879
850.35875
850.3587
850.35866
850.35861
850.35857
850.35852
850.35848
850.35844
850.3584
850.35836
850.35832
850.35828
)
;

boundaryField
{
    exteriorWall
    {
        type            calculated;
        value           nonuniform List<scalar> 
200
(
850.35546
850.35543
850.35543
850.35542
850.35542
850.35541
850.35541
850.3554
850.3554
850.3554
850.35539
850.35539
850.35538
850.35538
850.35538
850.35537
850.35537
850.35537
850.35536
850.35536
850.35536
850.35535
850.35535
850.35535
850.35534
850.35534
850.35534
850.35533
850.35533
850.35533
850.35532
850.35532
850.35532
850.35532
850.35531
850.35531
850.35531
850.3553
850.3553
850.3553
850.3553
850.35529
850.35529
850.35529
850.35529
850.35528
850.35528
850.35528
850.35528
850.35527
850.35527
850.35527
850.35527
850.35526
850.35526
850.35526
850.35526
850.35525
850.35525
850.35525
850.35525
850.35525
850.35524
850.35524
850.35524
850.35524
850.35523
850.35523
850.35523
850.35523
850.35523
850.35522
850.35522
850.35522
850.35522
850.35522
850.35521
850.35521
850.35521
850.35521
850.35521
850.35521
850.3552
850.3552
850.3552
850.3552
850.3552
850.35519
850.35519
850.35519
850.35519
850.35519
850.35519
850.35518
850.35518
850.35518
850.35518
850.35518
850.35518
850.35517
850.35517
850.35517
850.35517
850.35517
850.35517
850.35516
850.35516
850.35516
850.35516
850.35516
850.35516
850.35515
850.35515
850.35515
850.35515
850.35515
850.35515
850.35515
850.35514
850.35514
850.35514
850.35514
850.35514
850.35514
850.35514
850.35513
850.35513
850.35513
850.35513
850.35513
850.35513
850.35513
850.35512
850.35512
850.35512
850.35512
850.35512
850.35512
850.35512
850.35512
850.35511
850.35511
850.35511
850.35511
850.35511
850.35511
850.35511
850.35511
850.3551
850.3551
850.3551
850.3551
850.3551
850.3551
850.3551
850.3551
850.35509
850.35509
850.35509
850.35509
850.35509
850.35509
850.35509
850.35509
850.35509
850.35508
850.35508
850.35508
850.35508
850.35508
850.35508
850.35508
850.35508
850.35508
850.35507
850.35507
850.35507
850.35507
850.35507
850.35507
850.35507
850.35507
850.35507
850.35507
850.35506
850.35506
850.35506
850.35506
850.35506
850.35506
850.35506
850.35506
850.35506
850.35506
850.35505
850.35505
850.35505
850.35505
850.35505
850.35505
)
;
    }
    inlet
    {
        type            calculated;
        value           nonuniform List<scalar> 6(850.32883 850.32883 850.32884 850.32884 850.32885 850.32885);
    }
    outlet
    {
        type            calculated;
        value           nonuniform List<scalar> 6(850.36022 850.35988 850.35948 850.35911 850.35874 850.35828);
    }
    walls
    {
        type            calculated;
        value           nonuniform List<scalar> 0();
    }
    frontAndBack
    {
        type            empty;
    }
    frontAndBack_pos
    {
        type            wedge;
    }
    frontAndBack_neg
    {
        type            wedge;
    }
}


// ************************************************************************* //
