/*--------------------------------*- C++ -*----------------------------------*\
  =========                 |
  \\      /  F ield         | OpenFOAM: The Open Source CFD Toolbox
   \\    /   O peration     | Website:  https://openfoam.org
    \\  /    A nd           | Version:  10
     \\/     M anipulation  |
\*---------------------------------------------------------------------------*/
FoamFile
{
    format      ascii;
    class       volScalarField;
    location    "700/FLUID";
    object      kappaEff;
}
// * * * * * * * * * * * * * * * * * * * * * * * * * * * * * * * * * * * * * //

dimensions      [1 1 -3 -1 0 0 0];

internalField   nonuniform List<scalar> 
1200
(
1.9656656
2.0246522
2.0998393
2.1718725
2.2390786
2.3005852
2.3553689
2.4035253
2.445672
2.4825368
2.5148704
2.5433845
2.5687171
2.5914089
2.6119151
2.6306183
2.6478609
2.6639245
2.6790347
2.693389
2.7071544
2.7204686
2.733445
2.7461754
2.7587339
2.7711792
2.7835571
2.7959026
2.8082422
2.8205945
2.8329725
2.8453842
2.8578336
2.8703217
2.882847
2.8954064
2.9079958
2.9206096
2.9332415
2.9458846
2.9585319
2.9711763
2.9838111
2.9964293
3.0090245
3.0215904
3.0341211
3.0466109
3.0590545
3.0714469
3.0837835
3.0960599
3.1082721
3.1204168
3.1324907
3.144491
3.1564153
3.1682614
3.1800275
3.191712
3.2033133
3.2148305
3.2262627
3.2376091
3.2488723
3.2600523
3.2711486
3.2821611
3.2930896
3.3039342
3.3146947
3.3253714
3.3359643
3.3464738
3.3568999
3.3672432
3.3775039
3.3876826
3.3977797
3.4077958
3.4177315
3.4275874
3.4373642
3.4470625
3.4566832
3.4662269
3.4756945
3.4850868
3.4944045
3.5036485
3.5128197
3.5219188
3.5309469
3.5399046
3.548793
3.5576128
3.566365
3.5750504
3.5836699
3.5922243
3.6007146
3.6091416
3.6175062
3.6258091
3.6340512
3.6422335
3.6503566
3.6584213
3.6664286
3.6743792
3.6822738
3.6901133
3.6978984
3.7056298
3.7133083
3.7209346
3.7285094
3.7360334
3.7435074
3.7509319
3.7583077
3.7656354
3.7729156
3.7801491
3.7873363
3.7944779
3.8015746
3.8086268
3.8156352
3.8226003
3.8295226
3.8364029
3.8432414
3.8500388
3.8567957
3.8635124
3.8701894
3.8768274
3.8834266
3.8899877
3.896511
3.902997
3.9094461
3.9158588
3.9222355
3.9285765
3.9348824
3.9411534
3.94739
3.9535925
3.9597614
3.965897
3.9719996
3.9780696
3.9841074
3.9901133
3.9960876
4.0020306
4.0079427
4.0138242
4.0196754
4.0254965
4.031288
4.03705
4.0427829
4.048487
4.0541625
4.0598096
4.0654288
4.0710201
4.076584
4.0821206
4.0876302
4.093113
4.0985693
4.1039993
4.1094032
4.1147813
4.1201338
4.1254609
4.1307628
4.1360398
4.141292
4.1465197
4.1517231
4.1569023
4.1620576
4.1671891
4.1722969
4.1773813
4.1824423
4.1874799
4.1924939
4.197484
4.2024478
4.2073876
4.2122749
4.2171831
4.2216242
4.2271184
1.9791627
2.0550711
2.1289961
2.1907705
2.2449689
2.291985
2.3321832
2.3667797
2.3969479
2.4236717
2.4477868
2.4699686
2.4907573
2.5105973
2.5298408
2.5486976
2.5672963
2.5857314
2.6040651
2.6223301
2.640541
2.6587009
2.6768055
2.6948466
2.7128135
2.730695
2.7484797
2.7661567
2.7837161
2.801149
2.8184473
2.8356042
2.8526138
2.8694711
2.8861718
2.9027128
2.919091
2.9353042
2.9513506
2.9672293
2.9829399
2.9984822
3.0138564
3.0290628
3.0441019
3.0589747
3.0736819
3.0882248
3.1026046
3.1168231
3.130882
3.1447891
3.1585467
3.1721563
3.1856193
3.1989372
3.2121115
3.2251438
3.2380355
3.2507879
3.2634025
3.2758808
3.2882239
3.3004333
3.3125085
3.3244507
3.3362613
3.347942
3.3594942
3.3709195
3.3822198
3.3933966
3.4044517
3.4153868
3.4262036
3.436904
3.4474895
3.4579619
3.468323
3.4785744
3.4887177
3.4987547
3.5086869
3.518516
3.5282435
3.5378711
3.5474002
3.5568323
3.5661691
3.5754119
3.5845622
3.5936214
3.6025909
3.6114721
3.6202663
3.628975
3.6375993
3.6461405
3.6546
3.6629789
3.6712784
3.6794998
3.6876442
3.6957127
3.7037064
3.7116265
3.719474
3.72725
3.7349555
3.7425915
3.750159
3.7576589
3.7650923
3.7724599
3.7797629
3.787002
3.794178
3.801292
3.8083447
3.8153369
3.8222694
3.829143
3.8359585
3.8427166
3.8494182
3.8560638
3.8626542
3.8691902
3.8756723
3.8821012
3.8884777
3.8948023
3.9010757
3.9072985
3.9134713
3.9195946
3.9256691
3.9316954
3.9376739
3.9436052
3.94949
3.9553286
3.9611216
3.9668695
3.9725728
3.9782321
3.9838477
3.9894201
3.9949499
4.0004374
4.0058831
4.0112874
4.0166508
4.0219737
4.0272565
4.0324997
4.0377035
4.0428684
4.0479948
4.0530831
4.0581336
4.0631467
4.0681228
4.0730622
4.0779653
4.0828324
4.0876639
4.0924601
4.0972213
4.1019479
4.1066401
4.1112983
4.1159228
4.1205139
4.1250719
4.1295971
4.1340898
4.1385502
4.1429788
4.1473756
4.1517411
4.1560754
4.160379
4.1646519
4.1688945
4.1731071
4.1772899
4.1814431
4.185567
4.1896618
4.1937277
4.1977649
4.2017736
4.205754
4.2097053
4.2136304
4.2175129
4.2214068
4.2249716
4.2292488
2.0001553
2.0927889
2.1473431
2.185407
2.2195505
2.2499607
2.2776088
2.3036827
2.3288007
2.353349
2.3776191
2.401807
2.426031
2.4503029
2.4746077
2.4989143
2.5231869
2.547385
2.5714665
2.5953901
2.6191185
2.6426192
2.6658647
2.6888321
2.7115028
2.7338621
2.7558989
2.7776045
2.7989731
2.8200009
2.8406859
2.8610274
2.881026
2.9006834
2.9200011
2.9389824
2.9576252
2.975935
2.9939151
3.0115693
3.0289019
3.0459174
3.0626202
3.079015
3.0951064
3.1108993
3.1263984
3.1416086
3.1565349
3.1711817
3.1855539
3.1996491
3.213471
3.2270245
3.2403147
3.2533469
3.2661264
3.2786584
3.2909481
3.3030007
3.3148213
3.3264149
3.3377862
3.3489401
3.3598814
3.3706147
3.3811443
3.3914745
3.4016095
3.4115534
3.4213102
3.4308837
3.4402777
3.4494958
3.4585417
3.4674189
3.4761307
3.4846806
3.4930717
3.5013072
3.5093902
3.5173238
3.5251107
3.532754
3.5402564
3.5476206
3.5548492
3.5619449
3.5689102
3.5757474
3.5824592
3.5890476
3.5955152
3.601864
3.6080963
3.6142141
3.6202196
3.6261148
3.6319016
3.6375821
3.6431579
3.6486311
3.6540034
3.6592765
3.6644522
3.6695322
3.6745181
3.6794114
3.6842138
3.6889269
3.693552
3.6980907
3.7025444
3.7069145
3.7112023
3.7154093
3.7195368
3.723586
3.7275582
3.7314546
3.7352765
3.739025
3.7427012
3.7463065
3.7498418
3.7533082
3.7567069
3.7600388
3.763305
3.7665066
3.7696444
3.7727196
3.7757329
3.7786855
3.7815782
3.7844118
3.7871874
3.7899057
3.7925676
3.7951739
3.7977256
3.8002233
3.8026679
3.8050602
3.8074009
3.8096907
3.8119305
3.814121
3.8162628
3.8183567
3.8204034
3.8224035
3.8243577
3.8262668
3.8281312
3.8299517
3.8317289
3.8334634
3.8351558
3.8368068
3.8384168
3.8399866
3.8415165
3.8430073
3.8444595
3.8458736
3.8472501
3.8485896
3.8498926
3.8511596
3.8523911
3.8535876
3.8547497
3.8558777
3.8569722
3.8580336
3.8590624
3.860059
3.8610239
3.8619576
3.8628604
3.8637329
3.8645753
3.8653882
3.866172
3.866927
3.8676537
3.8683525
3.8690237
3.8696679
3.8702852
3.8708764
3.8714416
3.8719818
3.8724976
3.8729919
3.8734648
3.8739391
3.8743747
3.8748011
1.996553
2.086001
2.106343
2.1231943
2.1463144
2.1707369
2.1959352
2.2219641
2.2485297
2.2754053
2.3024554
2.3295726
2.3566546
2.38359
2.4102738
2.4366255
2.4625725
2.4880524
2.5130139
2.5374157
2.561225
2.5844169
2.6069734
2.628882
2.6501351
2.6707291
2.6906638
2.7099417
2.7285678
2.746549
2.7638938
2.7806119
2.7967143
2.8122128
2.8271208
2.8414515
2.8552278
2.8684621
2.8811693
2.8933645
2.9050626
2.9162785
2.9270272
2.9373234
2.9471813
2.9566152
2.9656387
2.9742654
2.9825083
2.9903801
2.9978932
3.0050604
3.0118935
3.0184036
3.0246013
3.0304966
3.0360994
3.0414191
3.0464649
3.0512458
3.0557703
3.0600469
3.0640836
3.0678882
3.0714683
3.0748314
3.0779844
3.0809343
3.0836876
3.0862507
3.0886296
3.0908304
3.0928588
3.0947201
3.0964199
3.0979631
3.0993549
3.1005999
3.1017029
3.1026684
3.1035007
3.104204
3.1047824
3.1052398
3.1055801
3.105807
3.105924
3.1059346
3.1058421
3.1056498
3.1053609
3.1049784
3.1045052
3.1039443
3.1032983
3.10257
3.1017621
3.100877
3.0999172
3.0988851
3.0977829
3.0966131
3.0953776
3.0940787
3.0927184
3.0912987
3.0898215
3.0882887
3.0867021
3.0850636
3.0833748
3.0816374
3.0798531
3.0780233
3.0761498
3.0742339
3.0722772
3.070281
3.0682467
3.0661756
3.0640691
3.0619284
3.0597547
3.0575493
3.0553133
3.0530479
3.050754
3.0484329
3.0460855
3.0437129
3.0413161
3.038896
3.0364535
3.0339896
3.0315051
3.0290009
3.0264779
3.0239369
3.0213786
3.0188038
3.0162133
3.0136079
3.0109881
3.0083548
3.0057086
3.0030501
3.0003801
2.997699
2.9950076
2.9923063
2.9895959
2.9868768
2.9841496
2.9814148
2.9786729
2.9759245
2.97317
2.9704098
2.9676446
2.9648746
2.9621003
2.9593223
2.9565408
2.9537562
2.9509691
2.9481797
2.9453884
2.9425955
2.9398015
2.9370067
2.9342114
2.9314158
2.9286204
2.9258254
2.9230312
2.9202379
2.9174459
2.9146555
2.9118669
2.9090803
2.9062961
2.9035144
2.9007355
2.8979596
2.8951869
2.8924177
2.8896522
2.8868905
2.8841329
2.8813795
2.8786307
2.8758867
2.8731478
2.8704143
2.8676867
2.8649654
2.8622522
2.8595241
2.8569189
2.8535769
1.9251413
1.9921158
1.9623216
1.9402791
1.9303428
1.9243589
1.9219785
1.9232362
1.9274747
1.9339949
1.9421729
1.9514621
1.9614004
1.9716382
1.981915
1.9920417
2.001878
2.0113252
2.020317
2.0288112
2.036783
2.0442202
2.05112
2.057486
2.0633266
2.0686534
2.0734806
2.0778238
2.0816998
2.0851261
2.0881206
2.0907016
2.0928873
2.094696
2.0961461
2.0972544
2.0980383
2.0985148
2.0987004
2.0986108
2.0982607
2.0976646
2.0968366
2.09579
2.0945378
2.0930925
2.0914659
2.0896694
2.0877138
2.0856094
2.083366
2.080993
2.0784999
2.0758952
2.0731872
2.0703831
2.0674901
2.0645149
2.0614636
2.0583422
2.0551562
2.0519111
2.0486118
2.045263
2.0418691
2.0384345
2.0349631
2.0314586
2.0279245
2.0243642
2.0207807
2.0171769
2.0135555
2.0099191
2.0062701
2.0026106
1.9989427
1.9952685
1.9915896
1.9879078
1.9842246
1.9805416
1.97686
1.9731812
1.9695063
1.9658364
1.9621726
1.9585157
1.9548667
1.9512263
1.9475953
1.9439743
1.9403641
1.936765
1.9331778
1.9296029
1.9260406
1.9224915
1.9189558
1.915434
1.9119262
1.9084328
1.904954
1.9014901
1.8980411
1.8946074
1.8911889
1.887786
1.8843986
1.8810269
1.8776709
1.8743308
1.8710065
1.8676981
1.8644057
1.8611292
1.8578687
1.8546242
1.8513956
1.848183
1.8449864
1.8418056
1.8386408
1.8354918
1.8323586
1.8292411
1.8261394
1.8230534
1.819983
1.8169282
1.8138888
1.8108649
1.8078564
1.8048633
1.8018854
1.7989226
1.7959751
1.7930426
1.7901251
1.7872225
1.7843348
1.7814619
1.7786037
1.7757602
1.7729312
1.7701168
1.7673169
1.7645313
1.7617601
1.7590031
1.7562604
1.7535317
1.7508171
1.7481164
1.7454297
1.7427569
1.7400979
1.7374525
1.7348209
1.7322028
1.7295983
1.7270073
1.7244296
1.7218654
1.7193144
1.7167766
1.714252
1.7117405
1.7092421
1.7067566
1.7042841
1.7018245
1.6993776
1.6969435
1.6945221
1.6921133
1.689717
1.6873333
1.6849621
1.6826032
1.6802567
1.6779225
1.6756005
1.6732907
1.670993
1.6687073
1.6664337
1.6641721
1.6619224
1.6596846
1.6574587
1.6552447
1.6530428
1.6508531
1.6486759
1.6465097
1.6443641
1.6421589
1.6402081
1.6367272
1.6635037
1.5753429
1.3735482
1.2124325
1.0908183
0.99386983
0.91923988
0.86444817
0.82565309
0.79917013
0.7818303
0.77103472
0.76475605
0.76148494
0.76017164
0.76010906
0.76080971
0.76194495
0.76329984
0.76473584
0.76616574
0.76753656
0.76881766
0.7699927
0.77105443
0.77200126
0.77283504
0.77355962
0.77417999
0.77470168
0.77513041
0.7754719
0.7757318
0.77591548
0.77602865
0.77607533
0.77605777
0.77598066
0.77584954
0.77566818
0.77543972
0.7751671
0.77485303
0.77450009
0.77411068
0.77368709
0.77323146
0.77274579
0.77223198
0.77169174
0.77112649
0.7705377
0.76992714
0.76929651
0.76864726
0.76798062
0.76729771
0.76659955
0.76588712
0.76516136
0.76442316
0.76367338
0.76291285
0.76214234
0.76136259
0.76057431
0.75977819
0.75897488
0.75816501
0.75734915
0.75652786
0.75570165
0.75487103
0.75403644
0.75319833
0.7523571
0.75151315
0.75066683
0.7498185
0.74896849
0.74811708
0.74726458
0.74641126
0.74555736
0.74470313
0.74384879
0.74299455
0.74214061
0.74128714
0.74043433
0.73958233
0.7387313
0.73788136
0.73703265
0.73618529
0.7353394
0.73449507
0.7336524
0.73281149
0.73197241
0.73113523
0.73030004
0.72946689
0.72863584
0.72780695
0.72698027
0.72615583
0.72533369
0.72451388
0.72369644
0.7228814
0.72206878
0.7212586
0.72045091
0.7196457
0.71884301
0.71804285
0.71724523
0.71645017
0.71565767
0.71486776
0.71408042
0.71329569
0.71251355
0.71173402
0.7109571
0.71018279
0.7094111
0.70864203
0.70787558
0.70711176
0.70635056
0.70559199
0.70483604
0.70408272
0.70333202
0.70258395
0.7018385
0.70109568
0.70035548
0.6996179
0.69888294
0.6981506
0.69742088
0.69669378
0.69596929
0.69524742
0.69452816
0.69381151
0.69309748
0.69238605
0.69167724
0.69097103
0.69026743
0.68956643
0.68886804
0.68817225
0.68747906
0.68678848
0.68610049
0.6854151
0.68473231
0.68405212
0.68337452
0.68269951
0.6820271
0.68135728
0.68069005
0.6800254
0.67936334
0.67870387
0.67804698
0.67739268
0.67674095
0.6760918
0.67544522
0.67480122
0.67415979
0.67352093
0.67288464
0.67225091
0.67161975
0.67099115
0.67036511
0.66974163
0.66912071
0.66850236
0.66788656
0.66727335
0.66666272
0.66605472
0.6654494
0.66484686
0.66424716
0.66365138
0.66305375
0.66248303
0.66178902
0.66151745
0.65943367
)
;

boundaryField
{
    exteriorWall
    {
        type            calculated;
        value           nonuniform List<scalar> 
200
(
0.25768328
0.25768328
0.25768328
0.25768328
0.25768328
0.25768328
0.25768328
0.25768328
0.25768328
0.25768328
0.25768328
0.25768328
0.25768328
0.25768328
0.25768328
0.25768328
0.25768328
0.25768328
0.25768328
0.25768328
0.25768328
0.25768328
0.25768328
0.25768328
0.25768328
0.25768328
0.25768328
0.25768328
0.25768328
0.25768328
0.25768328
0.25768328
0.25768328
0.25768328
0.25768328
0.25768328
0.25768328
0.25768328
0.25768328
0.25768328
0.25768328
0.25768328
0.25768328
0.25768328
0.25768328
0.25768328
0.25768328
0.25768328
0.25768328
0.25768328
0.25768328
0.25768328
0.25768328
0.25768328
0.25768328
0.25768328
0.25768328
0.25768328
0.25768328
0.25768328
0.25768328
0.25768328
0.25768328
0.25768328
0.25768328
0.25768328
0.25768328
0.25768328
0.25768328
0.25768328
0.25768328
0.25768328
0.25768328
0.25768328
0.25768328
0.25768328
0.25768328
0.25768328
0.25768328
0.25768328
0.25768328
0.25768328
0.25768328
0.25768328
0.25768328
0.25768328
0.25768328
0.25768328
0.25768328
0.25768328
0.25768328
0.25768328
0.25768328
0.25768328
0.25768328
0.25768328
0.25768328
0.25768328
0.25768328
0.25768328
0.25768328
0.25768328
0.25768328
0.25768328
0.25768328
0.25768328
0.25768328
0.25768328
0.25768328
0.25768328
0.25768328
0.25768328
0.25768328
0.25768328
0.25768328
0.25768328
0.25768328
0.25768328
0.25768328
0.25768328
0.25768328
0.25768328
0.25768328
0.25768328
0.25768328
0.25768328
0.25768328
0.25768328
0.25768328
0.25768328
0.25768328
0.25768328
0.25768328
0.25768328
0.25768328
0.25768328
0.25768328
0.25768328
0.25768328
0.25768328
0.25768328
0.25768328
0.25768328
0.25768328
0.25768328
0.25768328
0.25768328
0.25768328
0.25768328
0.25768328
0.25768328
0.25768328
0.25768328
0.25768328
0.25768328
0.25768328
0.25768328
0.25768328
0.25768328
0.25768328
0.25768328
0.25768328
0.25768328
0.25768328
0.25768328
0.25768328
0.25768328
0.25768328
0.25768328
0.25768328
0.25768328
0.25768328
0.25768328
0.25768328
0.25768328
0.25768328
0.25768328
0.25768328
0.25768328
0.25768328
0.25768328
0.25768328
0.25768328
0.25768328
0.25768328
0.25768328
0.25768328
0.25768328
0.25768328
0.25768328
0.25768328
0.25768328
0.25768328
0.25768328
0.25768328
0.25768328
0.25768328
0.25768328
0.25768328
0.25768328
)
;
    }
    inlet
    {
        type            calculated;
        value           nonuniform List<scalar> 6(1.9451998 1.9452145 1.9452419 1.9452703 1.9452911 1.9453048);
    }
    outlet
    {
        type            calculated;
        value           nonuniform List<scalar> 6(4.2271117 4.2292426 3.8747966 2.8535738 1.6367255 0.65943318);
    }
    walls
    {
        type            calculated;
        value           nonuniform List<scalar> 0();
    }
    frontAndBack
    {
        type            empty;
    }
    frontAndBack_pos
    {
        type            wedge;
    }
    frontAndBack_neg
    {
        type            wedge;
    }
}


// ************************************************************************* //
