/*--------------------------------*- C++ -*----------------------------------*\
  =========                 |
  \\      /  F ield         | OpenFOAM: The Open Source CFD Toolbox
   \\    /   O peration     | Website:  https://openfoam.org
    \\  /    A nd           | Version:  10
     \\/     M anipulation  |
\*---------------------------------------------------------------------------*/
FoamFile
{
    format      ascii;
    class       volScalarField;
    location    "700/FLUID";
    object      kappaEffSolid;
}
// * * * * * * * * * * * * * * * * * * * * * * * * * * * * * * * * * * * * * //

dimensions      [1 1 -3 -1 0 0 0];

internalField   nonuniform List<scalar> 
1200
(
0.094633353
0.094785598
0.09506235
0.095481461
0.09604652
0.096752399
0.09759066
0.098551804
0.099626438
0.1008058
0.1020818
0.10344693
0.10489427
0.10641814
0.10801332
0.10967945
0.11141275
0.11320406
0.11504464
0.1169262
0.11884102
0.12078186
0.12274205
0.12471544
0.12669641
0.12867983
0.13066105
0.13263592
0.1346007
0.13655208
0.13848711
0.14040326
0.14229828
0.14417028
0.14601763
0.14783897
0.1496332
0.15139943
0.15313696
0.15484528
0.156524
0.15817291
0.15979189
0.16138094
0.16294016
0.16446972
0.16596987
0.16744092
0.16888322
0.17029718
0.17168326
0.17304198
0.17437385
0.17567941
0.17695916
0.17821364
0.17944337
0.18064887
0.18183066
0.18298928
0.18412524
0.18523906
0.18633125
0.18740235
0.18845303
0.18948377
0.19049498
0.19148709
0.19246054
0.19341574
0.19435313
0.19527311
0.1961761
0.19706249
0.19793268
0.19878704
0.19962596
0.2004498
0.20125891
0.20205365
0.20283434
0.20360131
0.20435489
0.20509538
0.20582308
0.20653829
0.20724129
0.20793235
0.20861175
0.20927975
0.20993659
0.21058252
0.21121779
0.21184261
0.21245723
0.21306186
0.2136567
0.21424197
0.21481787
0.2153846
0.21594234
0.21649128
0.21703159
0.21756346
0.21808706
0.21860254
0.21911008
0.21960983
0.22010193
0.22058655
0.22106383
0.2215339
0.22199691
0.22245299
0.22290227
0.22334489
0.22378095
0.22421059
0.22463393
0.22505108
0.22546215
0.22586725
0.22626649
0.22665999
0.22704783
0.22743012
0.22780696
0.22817844
0.22854466
0.22890571
0.22926167
0.22961264
0.22995871
0.23029994
0.23063643
0.23096826
0.23129551
0.23161824
0.23193654
0.23225048
0.23256013
0.23286556
0.23316684
0.23346404
0.23375722
0.23404645
0.23433179
0.23461331
0.23489105
0.2351651
0.23543549
0.23570229
0.23596556
0.23622535
0.23648172
0.23673471
0.23698438
0.23723078
0.23747396
0.23771396
0.23795085
0.23818466
0.23841544
0.23864323
0.23886808
0.23909004
0.23930915
0.23952544
0.23973896
0.23994975
0.24015786
0.24036331
0.24056615
0.24076642
0.24096415
0.24115938
0.24135215
0.24154248
0.24173042
0.241916
0.24209925
0.24228021
0.2424589
0.24263537
0.24280963
0.24298173
0.24315168
0.24331953
0.24348529
0.24364901
0.2438107
0.2439704
0.24412813
0.24428392
0.24443778
0.24458972
0.24473963
0.24488682
0.24502776
0.24514433
0.094957488
0.095683863
0.0967837
0.098212262
0.09989785
0.10177283
0.10378309
0.10588685
0.10805275
0.11025763
0.11248423
0.11471951
0.11695436
0.11919117
0.12142242
0.12363391
0.12581667
0.12796712
0.13008302
0.13216304
0.13420653
0.13621328
0.13818338
0.14011716
0.14201505
0.14387756
0.14570529
0.14749882
0.14925875
0.15098571
0.1526803
0.15434311
0.15597474
0.15757576
0.15914676
0.16068831
0.16220105
0.16368553
0.16514229
0.16657184
0.16797469
0.16935134
0.17070232
0.1720281
0.17332921
0.17460612
0.17585934
0.17708935
0.17829662
0.17948165
0.18064494
0.18178731
0.18290914
0.18401071
0.18509239
0.18615453
0.18719753
0.18822178
0.18922765
0.19021554
0.19118584
0.19213892
0.19307515
0.19399489
0.1948984
0.19578608
0.19665828
0.19751537
0.1983577
0.19918559
0.19999937
0.20079933
0.20158578
0.20235901
0.20311929
0.20386691
0.20460213
0.2053252
0.20603639
0.20673594
0.20742408
0.20810106
0.2087671
0.20942243
0.21006726
0.2107018
0.21132626
0.21194084
0.21254574
0.21314116
0.21372727
0.21430426
0.21487231
0.21543159
0.21598227
0.21652452
0.21705849
0.21758435
0.21810226
0.21861235
0.21911478
0.21960969
0.22009721
0.2205775
0.22105067
0.22151687
0.22197621
0.22242882
0.22287482
0.22331434
0.22374748
0.22417437
0.22459511
0.2250098
0.22541857
0.2258215
0.22621871
0.22661028
0.22699633
0.22737693
0.22775219
0.2281222
0.22848704
0.2288468
0.22920156
0.22955142
0.22989645
0.23023673
0.23057234
0.23090336
0.23122986
0.23155191
0.23186959
0.23218296
0.23249211
0.23279708
0.23309796
0.2333948
0.23368767
0.23397663
0.23426175
0.23454307
0.23482067
0.2350946
0.23536492
0.23563168
0.23589493
0.23615473
0.23641114
0.2366642
0.23691396
0.23716048
0.2374038
0.23764398
0.23788105
0.23811506
0.23834606
0.23857409
0.23879921
0.23902144
0.23924083
0.23945743
0.23967127
0.23988239
0.24009083
0.24029664
0.24049985
0.24070049
0.2408986
0.24109422
0.24128739
0.24147814
0.24166649
0.2418525
0.24203618
0.24221757
0.24239671
0.24257362
0.24274834
0.24292089
0.2430913
0.24325962
0.24342585
0.24359004
0.2437522
0.24391238
0.24407058
0.24422685
0.2443812
0.24453367
0.24468428
0.24483305
0.24498
0.24512517
0.24526856
0.24541018
0.24554992
0.24568714
0.24581852
0.24592709
0.096455008
0.099174926
0.10255075
0.10627442
0.11010037
0.11387564
0.11751491
0.1209766
0.12424676
0.12732747
0.13022907
0.13296537
0.13555055
0.13799517
0.14031033
0.14251123
0.14461056
0.14661924
0.14854665
0.15040084
0.15218874
0.15391637
0.15558895
0.15721106
0.15878671
0.16031941
0.16181228
0.16326806
0.16468916
0.16607774
0.1674357
0.16876473
0.17006634
0.17134188
0.17259255
0.17381947
0.1750241
0.17620699
0.17736878
0.17851011
0.17963161
0.18073385
0.18181738
0.18288271
0.18393032
0.18496064
0.18597409
0.18697105
0.18795189
0.18891694
0.1898665
0.19080054
0.19171949
0.19262376
0.19351371
0.19438965
0.19525185
0.19610059
0.19693612
0.19775866
0.19856847
0.19936575
0.20015074
0.20092363
0.20168464
0.20243394
0.20317176
0.20389827
0.20461369
0.2053182
0.206012
0.20669527
0.20736819
0.20803094
0.2086837
0.20932664
0.20995993
0.21058373
0.21119822
0.21180353
0.21239985
0.21298731
0.21356607
0.21413628
0.21469808
0.21525162
0.21579703
0.21633447
0.21686405
0.21738593
0.21790021
0.21840704
0.21890655
0.21939884
0.21988405
0.2203623
0.2208337
0.22129836
0.22175641
0.22220794
0.22265307
0.22309191
0.22352456
0.22395112
0.22437169
0.22478637
0.22519526
0.22559845
0.22599604
0.22638811
0.22677476
0.22715608
0.22753214
0.22790304
0.22826886
0.22862968
0.22898558
0.22933663
0.22968292
0.23002452
0.2303615
0.23069394
0.23102191
0.23134548
0.23166471
0.23197967
0.23229044
0.23259707
0.23289962
0.23319817
0.23349277
0.23378348
0.23407037
0.23435348
0.23463288
0.23490862
0.23518076
0.23544935
0.23571444
0.23597609
0.23623435
0.23648926
0.23674088
0.23698926
0.23723444
0.23747647
0.23771539
0.23795126
0.23818411
0.23841399
0.23864094
0.238865
0.23908622
0.23930464
0.23952029
0.23973321
0.23994345
0.24015104
0.24035602
0.24055843
0.2407583
0.24095566
0.24115056
0.24134302
0.24153309
0.24172079
0.24190615
0.24208922
0.24227001
0.24244857
0.24262492
0.24279909
0.24297111
0.24314101
0.24330882
0.24347457
0.24363829
0.2438
0.24395973
0.2441175
0.24427335
0.2444273
0.24457937
0.24472958
0.24487797
0.24502456
0.24516937
0.24531242
0.24545374
0.24559335
0.24573127
0.24586753
0.24600214
0.24613513
0.24626651
0.24639628
0.24652434
0.24665008
0.24677045
0.24686975
0.10038333
0.10675986
0.11315453
0.11911193
0.12447529
0.12923843
0.13345835
0.13721001
0.14056707
0.14359475
0.14634784
0.14887105
0.15119948
0.15335348
0.15536095
0.15724488
0.15902316
0.16071016
0.16231762
0.16385528
0.16533131
0.16675258
0.16812496
0.16945345
0.17074233
0.17199531
0.17321559
0.17440592
0.17556872
0.17670606
0.17781977
0.17891142
0.17998239
0.18103389
0.18206696
0.18308246
0.1840806
0.18506249
0.18602892
0.18698053
0.18791784
0.18884133
0.18975138
0.19064835
0.19153255
0.19240426
0.19326373
0.19411119
0.19494685
0.19577091
0.19658353
0.19738477
0.19817478
0.19895373
0.1997218
0.20047917
0.20122601
0.20196248
0.20268872
0.20340487
0.20411108
0.20480747
0.20549418
0.20617133
0.20683905
0.20749744
0.20814663
0.20878674
0.20941789
0.2100402
0.21065379
0.21125877
0.21185528
0.21244342
0.21302332
0.21359509
0.21415885
0.21471471
0.21526278
0.21580319
0.21633603
0.21686142
0.21737948
0.21789029
0.21839399
0.21889066
0.21938042
0.21986336
0.22033959
0.22080921
0.22127232
0.22172902
0.2221794
0.22262356
0.2230616
0.2234936
0.22391966
0.22433987
0.22475432
0.22516309
0.22556627
0.22596396
0.22635622
0.22674315
0.22712483
0.22750132
0.22787273
0.22823911
0.22860055
0.22895713
0.22930891
0.22965597
0.22999838
0.23033621
0.23066953
0.23099841
0.23132291
0.2316431
0.23195905
0.23227082
0.23257846
0.23288205
0.23318164
0.23347729
0.23376906
0.23405701
0.2343412
0.23462167
0.23489848
0.2351717
0.23544136
0.23570753
0.23597025
0.23622957
0.23648554
0.23673821
0.23698764
0.23723385
0.23747691
0.23771686
0.23795374
0.23818759
0.23841846
0.23864639
0.23887142
0.23909359
0.23931295
0.23952953
0.23974338
0.23995452
0.240163
0.24036886
0.24057213
0.24077285
0.24097105
0.24116677
0.24136005
0.2415509
0.24173938
0.24192552
0.24210933
0.24229086
0.24247014
0.2426472
0.24282206
0.24299477
0.24316534
0.2433338
0.24350019
0.24366453
0.24382685
0.24398718
0.24414554
0.24430196
0.24445647
0.24460908
0.24475983
0.24490874
0.24505584
0.24520114
0.24534468
0.24548647
0.24562654
0.2457649
0.24590159
0.24603663
0.24617003
0.24630181
0.24643201
0.24656063
0.2466877
0.24681324
0.24693726
0.2470598
0.24718085
0.24730042
0.24741841
0.24753424
0.24764506
0.24773623
0.10727018
0.11744634
0.12575754
0.13259194
0.13827253
0.1430456
0.14710615
0.15060493
0.15365935
0.15636105
0.15878093
0.16097328
0.16297901
0.16482591
0.16653929
0.16814078
0.16964797
0.17107496
0.17243317
0.1737319
0.17497879
0.17618021
0.17734148
0.17846707
0.1795608
0.18062589
0.1816651
0.18268081
0.18367503
0.18464952
0.18560576
0.18654505
0.1874685
0.18837706
0.18927154
0.1901526
0.19102053
0.19187594
0.19271942
0.19355143
0.19437239
0.19518261
0.19598238
0.19677192
0.19755145
0.19832113
0.19908111
0.19983153
0.20057252
0.20130418
0.20202659
0.2027398
0.20344385
0.20413884
0.20482486
0.20550202
0.20617043
0.20683018
0.20748137
0.2081241
0.20875844
0.2093845
0.21000235
0.21061207
0.21121376
0.21180747
0.21239331
0.21297134
0.21354165
0.21410433
0.21465947
0.21520715
0.21574746
0.21628049
0.21680632
0.21732506
0.21783678
0.21834158
0.21883953
0.21933075
0.2198153
0.22029328
0.22076477
0.22122987
0.22168865
0.22214121
0.22258763
0.22302799
0.22346239
0.22389089
0.22431358
0.22473056
0.22514188
0.22554765
0.22594793
0.2263428
0.22673235
0.22711665
0.22749577
0.22786979
0.22823878
0.22860281
0.22896197
0.22931631
0.22966592
0.23001085
0.23035117
0.23068696
0.23101828
0.2313452
0.23166777
0.23198606
0.23230014
0.23261007
0.2329159
0.23321769
0.23351552
0.23380942
0.23409946
0.2343857
0.23466819
0.23494698
0.23522214
0.2354937
0.23576172
0.23602626
0.23628736
0.23654508
0.23679945
0.23705054
0.23729838
0.23754302
0.23778451
0.2380229
0.23825822
0.23849052
0.23871984
0.23894623
0.23916972
0.23939036
0.23960819
0.23982325
0.24003557
0.24024519
0.24045216
0.2406565
0.24085826
0.24105747
0.24125416
0.24144837
0.24164014
0.2418295
0.24201648
0.24220111
0.24238343
0.24256347
0.24274125
0.24291682
0.2430902
0.24326141
0.24343049
0.24359748
0.24376238
0.24392525
0.24408609
0.24424494
0.24440183
0.24455678
0.24470981
0.24486096
0.24501025
0.2451577
0.24530333
0.24544718
0.24558926
0.2457296
0.24586822
0.24600515
0.2461404
0.24627399
0.24640596
0.24653631
0.24666508
0.24679228
0.24691793
0.24704205
0.24716466
0.24728579
0.24740544
0.24752365
0.24764042
0.24775578
0.24786975
0.24798233
0.24809355
0.2482034
0.24831179
0.24841816
0.24851984
0.24860341
0.11685733
0.12937531
0.13870004
0.14607426
0.15201401
0.15688845
0.16093112
0.164311
0.16716843
0.16961871
0.17175355
0.17364402
0.17534355
0.17688947
0.17831167
0.17963391
0.18087465
0.18204813
0.18316536
0.18423496
0.18526379
0.18625738
0.1872202
0.18815598
0.18906778
0.18995819
0.19082936
0.19168313
0.19252106
0.19334445
0.19415442
0.19495193
0.19573777
0.19651264
0.19727708
0.19803155
0.19877623
0.19951151
0.20023777
0.20095533
0.20166445
0.20236534
0.20305817
0.20374308
0.20442016
0.20508952
0.20575122
0.20640533
0.2070519
0.20769099
0.20832261
0.20894677
0.20956347
0.21017274
0.21077464
0.21136922
0.21195655
0.21253668
0.21310967
0.21367558
0.21423445
0.21478635
0.21533132
0.21586942
0.2164007
0.21692522
0.21744302
0.21795416
0.2184587
0.2189567
0.21944822
0.21993334
0.2204121
0.22088459
0.22135087
0.221811
0.22226505
0.2227131
0.22315522
0.22359147
0.22402192
0.22444664
0.22486571
0.2252792
0.22568717
0.22608969
0.22648684
0.22687868
0.22726529
0.22764673
0.22802306
0.22839437
0.22876072
0.22912217
0.22947878
0.22983064
0.2301778
0.23052032
0.23085827
0.23119172
0.23152073
0.23184535
0.23216566
0.23248171
0.23279356
0.23310127
0.2334049
0.23370451
0.23400015
0.23429189
0.23457977
0.23486385
0.23514418
0.23542082
0.23569383
0.23596324
0.23622912
0.23649152
0.23675047
0.23700604
0.23725827
0.23750721
0.2377529
0.23799539
0.23823472
0.23847095
0.23870411
0.23893425
0.23916141
0.23938563
0.23960695
0.23982542
0.24004107
0.24025395
0.24046408
0.24067152
0.2408763
0.24107845
0.24127802
0.24147503
0.24166952
0.24186154
0.24205111
0.24223826
0.24242303
0.24260546
0.24278557
0.2429634
0.24313897
0.24331233
0.24348349
0.2436525
0.24381937
0.24398414
0.24414684
0.24430749
0.24446612
0.24462276
0.24477744
0.24493019
0.24508102
0.24522996
0.24537705
0.2455223
0.24566575
0.2458074
0.24594729
0.24608545
0.24622189
0.24635663
0.24648971
0.24662114
0.24675094
0.24687913
0.24700575
0.24713079
0.2472543
0.24737628
0.24749676
0.24761576
0.2477333
0.24784939
0.24796405
0.24807731
0.24818918
0.24829968
0.24840882
0.24851663
0.24862312
0.24872831
0.24883221
0.24893485
0.24903623
0.24913638
0.2492353
0.24933299
0.24942936
0.249524
0.24961416
0.24968932
)
;

boundaryField
{
    exteriorWall
    {
        type            calculated;
        value           nonuniform List<scalar> 
200
(
0.25768328
0.25768328
0.25768328
0.25768328
0.25768328
0.25768328
0.25768328
0.25768328
0.25768328
0.25768328
0.25768328
0.25768328
0.25768328
0.25768328
0.25768328
0.25768328
0.25768328
0.25768328
0.25768328
0.25768328
0.25768328
0.25768328
0.25768328
0.25768328
0.25768328
0.25768328
0.25768328
0.25768328
0.25768328
0.25768328
0.25768328
0.25768328
0.25768328
0.25768328
0.25768328
0.25768328
0.25768328
0.25768328
0.25768328
0.25768328
0.25768328
0.25768328
0.25768328
0.25768328
0.25768328
0.25768328
0.25768328
0.25768328
0.25768328
0.25768328
0.25768328
0.25768328
0.25768328
0.25768328
0.25768328
0.25768328
0.25768328
0.25768328
0.25768328
0.25768328
0.25768328
0.25768328
0.25768328
0.25768328
0.25768328
0.25768328
0.25768328
0.25768328
0.25768328
0.25768328
0.25768328
0.25768328
0.25768328
0.25768328
0.25768328
0.25768328
0.25768328
0.25768328
0.25768328
0.25768328
0.25768328
0.25768328
0.25768328
0.25768328
0.25768328
0.25768328
0.25768328
0.25768328
0.25768328
0.25768328
0.25768328
0.25768328
0.25768328
0.25768328
0.25768328
0.25768328
0.25768328
0.25768328
0.25768328
0.25768328
0.25768328
0.25768328
0.25768328
0.25768328
0.25768328
0.25768328
0.25768328
0.25768328
0.25768328
0.25768328
0.25768328
0.25768328
0.25768328
0.25768328
0.25768328
0.25768328
0.25768328
0.25768328
0.25768328
0.25768328
0.25768328
0.25768328
0.25768328
0.25768328
0.25768328
0.25768328
0.25768328
0.25768328
0.25768328
0.25768328
0.25768328
0.25768328
0.25768328
0.25768328
0.25768328
0.25768328
0.25768328
0.25768328
0.25768328
0.25768328
0.25768328
0.25768328
0.25768328
0.25768328
0.25768328
0.25768328
0.25768328
0.25768328
0.25768328
0.25768328
0.25768328
0.25768328
0.25768328
0.25768328
0.25768328
0.25768328
0.25768328
0.25768328
0.25768328
0.25768328
0.25768328
0.25768328
0.25768328
0.25768328
0.25768328
0.25768328
0.25768328
0.25768328
0.25768328
0.25768328
0.25768328
0.25768328
0.25768328
0.25768328
0.25768328
0.25768328
0.25768328
0.25768328
0.25768328
0.25768328
0.25768328
0.25768328
0.25768328
0.25768328
0.25768328
0.25768328
0.25768328
0.25768328
0.25768328
0.25768328
0.25768328
0.25768328
0.25768328
0.25768328
0.25768328
0.25768328
0.25768328
0.25768328
0.25768328
0.25768328
)
;
    }
    inlet
    {
        type            calculated;
        value           uniform 0.094566123;
    }
    outlet
    {
        type            calculated;
        value           nonuniform List<scalar> 6(0.24514433 0.24592709 0.24686975 0.24773623 0.24860341 0.24968932);
    }
    walls
    {
        type            calculated;
        value           nonuniform List<scalar> 0();
    }
    frontAndBack
    {
        type            empty;
    }
    frontAndBack_pos
    {
        type            wedge;
    }
    frontAndBack_neg
    {
        type            wedge;
    }
}


// ************************************************************************* //
