/*--------------------------------*- C++ -*----------------------------------*\
  =========                 |
  \\      /  F ield         | OpenFOAM: The Open Source CFD Toolbox
   \\    /   O peration     | Website:  https://openfoam.org
    \\  /    A nd           | Version:  10
     \\/     M anipulation  |
\*---------------------------------------------------------------------------*/
FoamFile
{
    format      ascii;
    class       volScalarField;
    location    "700/FLUID";
    object      overallU;
}
// * * * * * * * * * * * * * * * * * * * * * * * * * * * * * * * * * * * * * //

dimensions      [1 0 -3 -1 0 0 0];

internalField   nonuniform List<scalar> 
1200
(
176.99694
181.2518
186.6843
191.93746
196.90752
201.54191
205.77429
209.61286
213.09924
216.28089
219.20565
221.91807
224.45737
226.8565
229.14271
231.34086
233.47127
235.54735
237.57908
239.57499
241.54203
243.48564
245.41001
247.31832
249.21292
251.09546
252.96705
254.82834
256.67965
258.52103
260.35231
262.17318
263.98322
265.78196
267.56885
269.34337
271.10501
272.85327
274.58765
276.30765
278.01286
279.70288
281.37737
283.03602
284.67858
286.30483
287.91458
289.50769
291.08406
292.6436
294.18626
295.71205
297.22098
298.71309
300.18845
301.64713
303.08923
304.51485
305.92414
307.31723
308.69428
310.05545
311.40093
312.73093
314.04594
315.34617
316.63181
317.90304
319.16003
320.40298
321.63208
322.84751
324.04948
325.23817
326.41377
327.57648
328.72648
329.86396
330.98913
332.10215
333.20323
334.29254
335.37028
336.43662
337.49175
338.53584
339.56908
340.59163
341.60367
342.60538
343.59691
344.57844
345.55013
346.51213
347.46462
348.40774
349.34164
350.26649
351.18242
352.08958
352.98812
353.87817
354.75988
355.63337
356.49879
357.35626
358.20591
359.04787
359.88225
360.70918
361.52878
362.34116
363.14644
363.94472
364.73612
365.52075
366.2987
367.07008
367.83499
368.59353
369.34579
370.09187
370.83186
371.56586
372.29394
373.0162
373.73273
374.44359
375.14889
375.84868
376.54307
377.23211
377.91588
378.59447
379.26794
379.93635
380.59979
381.25831
381.91199
382.56088
383.20506
383.84458
384.4795
385.10989
385.7358
386.35729
386.97442
387.58724
388.19581
388.80017
389.40039
389.9965
390.58857
391.17664
391.76076
392.34098
392.91734
393.48989
394.05867
394.62372
395.1851
395.74283
396.29697
396.84756
397.39462
397.93821
398.47836
399.01511
399.5485
400.07856
400.60533
401.12884
401.64913
402.16623
402.68018
403.19101
403.69875
404.20343
404.70509
405.20375
405.69945
406.19221
406.68207
407.16905
407.65318
408.13449
408.61301
409.08876
409.56176
410.03204
410.49962
410.9645
411.42668
411.88615
412.34274
412.7966
413.24547
413.6948
414.10476
414.58666
178.11028
183.83834
189.59075
194.64588
199.3003
203.55109
207.3963
210.89808
214.12047
217.11868
219.9411
222.62763
225.21122
227.72417
230.18776
232.6102
234.99673
237.35285
239.68243
241.98766
244.26972
246.52912
248.76596
250.98011
253.17126
255.33909
257.48323
259.60336
261.69918
263.77046
265.817
267.83869
269.83543
271.80722
273.75405
275.67602
277.57324
279.44583
281.29394
283.11776
284.91751
286.69343
288.44578
290.17482
291.88082
293.56407
295.22486
296.86351
298.48032
300.07563
301.6498
303.20377
304.73789
306.25239
307.74754
309.22359
310.68084
312.11955
313.53999
314.94243
316.32715
317.69439
319.04442
320.37748
321.69364
322.99314
324.27625
325.54323
326.79434
328.02983
329.24996
330.45499
331.64515
332.82071
333.98191
335.12898
336.26217
337.3817
338.48782
339.58074
340.6607
341.7279
342.78257
343.82491
344.85514
345.87345
346.88006
347.87515
348.85891
349.83154
350.79322
351.74414
352.68446
353.61437
354.53403
355.44362
356.3433
357.23322
358.11355
358.98443
359.84603
360.69849
361.54195
362.37655
363.20243
364.01974
364.8286
365.62914
366.42149
367.20577
367.98211
368.75063
369.51145
370.26467
371.01041
371.74878
372.47989
373.20384
373.92074
374.63069
375.33378
376.03011
376.71979
377.40289
378.07952
378.74976
379.41369
380.07142
380.723
381.36854
382.00811
382.64179
383.26965
383.89177
384.50824
385.11911
385.72446
386.32436
386.91888
387.50809
388.09205
388.67083
389.24449
389.81309
390.3767
390.93537
391.48917
392.03814
392.58236
393.12187
393.65673
394.18699
394.71271
395.23393
395.75071
396.26311
396.77116
397.27492
397.77443
398.26975
398.76091
399.24796
399.73095
400.20993
400.68492
401.15599
401.62316
402.08648
402.546
403.00174
403.45375
403.90207
404.34673
404.78778
405.22525
405.65917
406.08959
406.51653
406.94004
407.36014
407.77687
408.19027
408.60036
409.00718
409.41076
409.81113
410.20832
410.60236
410.99329
411.38113
411.7659
412.14764
412.52636
412.90209
413.27479
413.64466
414.01038
414.37591
414.71307
415.09619
180.31444
188.20192
193.70577
198.19974
202.45166
206.39893
210.0712
213.53733
216.83886
220.00789
223.07305
226.05705
228.97662
231.83858
234.64761
237.40862
240.12485
242.79823
245.42977
248.01991
250.5688
253.07655
255.54327
257.96911
260.3543
262.69915
265.00405
267.26943
269.4958
271.68369
273.8337
275.94643
278.02248
280.0625
282.06703
284.03677
285.97209
287.8736
289.74177
291.57712
293.3802
295.15154
296.89168
298.60114
300.28045
301.93013
303.55068
305.1426
306.7064
308.24253
309.75146
311.23296
312.68747
314.11551
315.5176
316.89426
318.24597
319.57325
320.87657
322.15641
323.41325
324.64754
325.85974
327.05028
328.2196
329.36812
330.49626
331.60441
332.69296
333.76231
334.81282
335.84486
336.85879
337.85496
338.8337
339.79536
340.74025
341.6687
342.58103
343.47752
344.35849
345.22421
346.07498
346.91108
347.73277
348.54031
349.33397
350.11401
350.88066
351.63417
352.37477
353.1027
353.81818
354.52144
355.21269
355.89213
356.55998
357.21644
357.8617
358.49596
359.11941
359.73223
360.3346
360.9267
361.5087
362.08078
362.64309
363.1958
363.73907
364.27305
364.7979
365.31376
365.82079
366.31912
366.8089
367.29025
367.76332
368.22825
368.68514
369.13415
369.57538
370.00896
370.43501
370.85365
371.26498
371.66913
372.06621
372.45631
372.83956
373.21605
373.58588
373.94916
374.30598
374.65644
375.00064
375.33867
375.67062
375.99658
376.31664
376.63088
376.9394
377.24227
377.53958
377.8314
378.11783
378.39893
378.67478
378.94546
379.21104
379.4716
379.72721
379.97793
380.22384
380.46501
380.7015
380.93338
381.16072
381.38357
381.602
381.81608
382.02586
382.23141
382.43278
382.63003
382.82322
383.01241
383.19764
383.37899
383.55649
383.73021
383.90019
384.06649
384.22916
384.38824
384.54379
384.69586
384.84449
384.98973
385.13163
385.27023
385.40557
385.53771
385.66669
385.79254
385.91532
386.03506
386.15181
386.2656
386.37649
386.4845
386.58968
386.69208
386.79173
386.88872
386.98308
387.07508
387.16465
387.2534
387.33686
387.41108
181.88788
191.25757
195.5877
199.39259
203.358
207.14204
210.7464
214.21711
217.56838
220.81292
223.96434
227.03318
230.02597
232.94232
235.78496
238.55648
241.25798
243.88997
246.45282
248.94688
251.37257
253.73047
256.02126
258.24577
260.40496
262.49986
264.53158
266.5013
268.41026
270.25971
272.05095
273.78527
275.46399
277.08846
278.66003
280.18002
281.65025
283.07207
284.44688
285.77606
287.06094
288.30282
289.50297
290.66264
291.78302
292.8653
293.91061
294.92006
295.89472
296.83563
297.74379
298.62021
299.46584
300.28159
301.06835
301.82695
302.5582
303.26289
303.94178
304.59561
305.22511
305.83095
306.41383
306.97438
307.51325
308.03105
308.52837
309.0058
309.46388
309.90318
310.3242
310.72745
311.11344
311.48263
311.83549
312.17247
312.494
312.80052
313.09242
313.3701
313.63396
313.88437
314.1217
314.34629
314.5585
314.75866
314.94709
315.12411
315.29003
315.44514
315.58974
315.72411
315.84853
315.96325
316.06855
316.16467
316.25186
316.33036
316.40041
316.46222
316.51602
316.56203
316.60046
316.6315
316.65536
316.67223
316.6823
316.68575
316.68277
316.67352
316.65818
316.6369
316.60987
316.57722
316.53911
316.4957
316.44713
316.39354
316.33506
316.27185
316.20401
316.1317
316.05502
315.97411
315.88907
315.80004
315.70712
315.61042
315.51005
315.40612
315.29872
315.18797
315.07395
314.95677
314.83651
314.71327
314.58714
314.4582
314.32654
314.19223
314.05538
313.91604
313.7743
313.63023
313.4839
313.3354
313.18478
313.03212
312.87748
312.72092
312.56252
312.40233
312.24042
312.07683
311.91164
311.74489
311.57665
311.40695
311.23587
311.06345
310.88973
310.71477
310.53862
310.36132
310.18292
310.00346
309.82298
309.64153
309.45915
309.27587
309.09174
308.9068
308.72109
308.53463
308.34747
308.15964
307.97117
307.7821
307.59246
307.40228
307.21159
307.02042
306.82881
306.63677
306.44434
306.25155
306.05842
305.86498
305.67125
305.47727
305.28305
305.08864
304.89406
304.69935
304.50457
304.30973
304.11498
303.91817
303.73017
303.47315
179.71289
188.90833
189.90265
190.72258
191.95092
193.10812
194.27003
195.51308
196.83753
198.22534
199.65377
201.09858
202.53667
203.94913
205.32304
206.64989
207.92368
209.14068
210.29893
211.39775
212.43736
213.41865
214.34293
215.21178
216.02698
216.79042
217.50401
218.1697
218.78943
219.36512
219.89865
220.39186
220.84655
221.26447
221.64735
221.99675
222.31417
222.60117
222.85928
223.0899
223.29437
223.47399
223.62997
223.76351
223.87574
223.96774
224.04055
224.09516
224.13252
224.15353
224.15903
224.14986
224.12682
224.09069
224.04218
223.98198
223.91072
223.82901
223.73743
223.63652
223.5268
223.40876
223.28288
223.14961
223.00935
222.86253
222.70952
222.55069
222.38638
222.21692
222.04262
221.86378
221.68067
221.49356
221.3027
221.10832
220.91066
220.70991
220.50629
220.29997
220.09115
219.87999
219.66665
219.45129
219.23404
219.01505
218.79445
218.57234
218.34886
218.1241
217.89818
217.67118
217.4432
217.21433
216.98465
216.75423
216.52314
216.29147
216.05927
215.8266
215.59352
215.36009
215.12636
214.89238
214.6582
214.42385
214.18939
213.95484
213.72026
213.48566
213.2511
213.01659
212.78217
212.54787
212.31371
212.07972
211.84592
211.61235
211.37901
211.14593
210.91314
210.68064
210.44846
210.21662
209.98512
209.754
209.52326
209.29291
209.06297
208.83346
209.19942
208.97131
208.74365
208.51645
208.28972
208.06348
207.83773
207.61248
207.38774
207.16353
206.93985
206.7167
206.49411
206.27206
206.05058
205.82967
205.60933
205.38957
205.1704
204.95183
204.73386
204.5165
204.29975
204.08362
203.86811
203.65324
203.43899
203.22539
203.01243
202.80012
202.58846
202.37746
202.16712
201.95744
201.74844
201.5401
201.33245
201.12547
200.91918
200.71357
200.50865
200.30442
200.10089
199.89806
199.69592
199.49449
199.29377
199.09375
198.89444
198.69584
198.49796
198.30079
198.10433
197.9086
197.71359
197.5193
197.32573
197.13289
196.94078
196.7494
196.55876
196.36887
196.17974
195.9914
195.80388
195.61704
195.43178
195.24031
195.07226
194.75382
163.56352
160.66293
146.56161
134.36396
124.66059
116.91179
110.47916
105.66513
102.23432
99.911858
98.435448
97.575084
97.143449
96.996959
97.034548
97.187816
97.409431
97.6675
97.94127
98.217495
98.48798
98.747892
98.994575
99.226761
99.444048
99.646562
99.834736
100.00918
100.17057
100.31964
100.45711
100.58366
100.69999
100.80672
100.90452
100.99384
101.07495
101.14837
101.21474
101.27447
101.32794
101.37548
101.41738
101.45395
101.48544
101.5121
101.53419
101.55192
101.56549
101.57511
101.58093
101.5831
101.58183
101.5773
101.56968
101.55911
101.54573
101.52965
101.51099
101.48987
101.46638
101.44065
101.41276
101.38281
101.35089
101.3171
101.28151
101.24421
101.20527
101.16479
101.12282
101.07943
101.0347
100.98868
100.94144
100.89303
100.84351
100.79293
100.74134
100.68879
100.63532
100.58098
100.52582
100.46986
100.41315
100.35573
100.29763
100.23889
100.17953
100.11958
100.05908
99.998058
99.93653
99.874527
99.812072
99.749189
99.685898
99.622221
99.558178
99.493787
99.429067
99.364035
99.298708
99.233102
99.167231
99.10111
99.034752
98.968172
98.901382
98.834393
98.767218
98.699868
98.632352
98.564683
98.496868
98.428919
98.360843
98.29265
98.224349
98.155946
98.087451
98.018871
97.950213
97.881484
97.812691
97.743841
97.67494
97.605995
97.537011
97.467995
97.398952
97.329887
97.260807
97.191717
97.122621
97.053525
96.984434
96.915353
96.846285
96.777237
96.708212
96.639215
96.57025
96.501321
96.432433
96.36359
96.294796
96.226054
96.157368
96.088743
96.020183
95.951689
95.883267
95.81492
95.746651
95.678464
95.610362
95.542348
95.474426
95.406599
95.338869
95.271241
95.203716
95.136298
95.06899
95.001795
94.934714
94.867752
94.800911
94.734192
94.6676
94.601136
94.534802
94.468602
94.402537
94.33661
94.270823
94.205179
94.139678
94.074324
94.009119
93.944064
93.879162
93.814415
93.749824
93.685393
93.621123
93.557016
93.493076
93.429307
93.365715
93.302309
93.239101
93.176101
93.113437
93.050432
92.990454
92.915852
92.890475
92.651185
)
;

boundaryField
{
    exteriorWall
    {
        type            calculated;
        value           uniform 0;
    }
    inlet
    {
        type            calculated;
        value           uniform 0;
    }
    outlet
    {
        type            calculated;
        value           uniform 0;
    }
    walls
    {
        type            calculated;
        value           nonuniform List<scalar> 0();
    }
    frontAndBack
    {
        type            empty;
    }
    frontAndBack_pos
    {
        type            wedge;
    }
    frontAndBack_neg
    {
        type            wedge;
    }
}


// ************************************************************************* //
