/*--------------------------------*- C++ -*----------------------------------*\
  =========                 |
  \\      /  F ield         | OpenFOAM: The Open Source CFD Toolbox
   \\    /   O peration     | Website:  https://openfoam.org
    \\  /    A nd           | Version:  10
     \\/     M anipulation  |
\*---------------------------------------------------------------------------*/
FoamFile
{
    format      ascii;
    class       surfaceScalarField;
    location    "700/FLUID";
    object      phi;
}
// * * * * * * * * * * * * * * * * * * * * * * * * * * * * * * * * * * * * * //

dimensions      [1 0 -1 0 0 0 0];

internalField   nonuniform List<scalar> 
2194
(
6.9267302e-06
-1.7706219e-07
7.171831e-06
-2.4510072e-07
7.4200988e-06
-2.4826786e-07
7.6557531e-06
-2.3565431e-07
7.8676637e-06
-2.1191057e-07
8.0501401e-06
-1.8247639e-07
8.2026449e-06
-1.5250479e-07
8.3269018e-06
-1.2425691e-07
8.4256127e-06
-9.8710873e-08
8.5018671e-06
-7.6254406e-08
8.5587348e-06
-5.686764e-08
8.599043e-06
-4.0308268e-08
8.6252922e-06
-2.6249201e-08
8.6395992e-06
-1.4306936e-08
8.6436973e-06
-4.0981708e-09
8.6390977e-06
4.5995947e-09
8.6272421e-06
1.1855589e-08
8.6094765e-06
1.7765646e-08
8.5869897e-06
2.248683e-08
8.5608158e-06
2.6173825e-08
8.5318481e-06
2.8967713e-08
8.5008515e-06
3.099665e-08
8.468476e-06
3.2375452e-08
8.4352703e-06
3.3205748e-08
8.4016934e-06
3.3576847e-08
8.3681266e-06
3.3566791e-08
8.3348832e-06
3.3243433e-08
8.3022177e-06
3.2665483e-08
8.2703342e-06
3.1883496e-08
8.2393934e-06
3.0940807e-08
8.209519e-06
2.9874381e-08
8.1808034e-06
2.8715603e-08
8.1533124e-06
2.7490986e-08
8.1270897e-06
2.622277e-08
8.1021603e-06
2.4929397e-08
8.0785351e-06
2.3625187e-08
8.0562124e-06
2.2322737e-08
8.0351789e-06
2.1033483e-08
8.0154132e-06
1.9765627e-08
7.9968879e-06
1.85253e-08
7.9795707e-06
1.7317254e-08
7.9634256e-06
1.6145097e-08
7.9484141e-06
1.5011489e-08
7.9344958e-06
1.3918297e-08
7.9216291e-06
1.2866719e-08
7.9097717e-06
1.1857398e-08
7.8988812e-06
1.0890527e-08
7.8889152e-06
9.9659525e-09
7.8798319e-06
9.0832988e-09
7.8715898e-06
8.2420675e-09
7.8641478e-06
7.4420274e-09
7.8574656e-06
6.6821683e-09
7.8515051e-06
5.9605466e-09
7.84623e-06
5.2751155e-09
7.8416059e-06
4.6240698e-09
7.8376001e-06
4.0057555e-09
7.8341815e-06
3.4186163e-09
7.8313203e-06
2.8611795e-09
7.8289883e-06
2.332044e-09
7.8271584e-06
1.8298646e-09
7.8258051e-06
1.3533405e-09
7.8249039e-06
9.0116159e-10
7.8244319e-06
4.7206068e-10
7.824368e-06
6.3872354e-11
7.8246935e-06
-3.2545218e-10
7.8253901e-06
-6.9661756e-10
7.8264402e-06
-1.0501324e-09
7.8278268e-06
-1.3865822e-09
7.8295334e-06
-1.7065687e-09
7.8315441e-06
-2.0107067e-09
7.8338437e-06
-2.2996289e-09
7.8364177e-06
-2.5739788e-09
7.8392521e-06
-2.8344031e-09
7.8423336e-06
-3.0815444e-09
7.8456497e-06
-3.3160356e-09
7.8491881e-06
-3.5384949e-09
7.8529377e-06
-3.7495232e-09
7.8568874e-06
-3.9497008e-09
7.861027e-06
-4.1395861e-09
7.8653467e-06
-4.3197149e-09
7.8698373e-06
-4.490599e-09
7.87449e-06
-4.6527269e-09
7.8792966e-06
-4.8065635e-09
7.8842491e-06
-4.9525507e-09
7.8893402e-06
-5.0911075e-09
7.8945629e-06
-5.2226313e-09
7.8999103e-06
-5.3474981e-09
7.9053764e-06
-5.4660638e-09
7.9109551e-06
-5.5786646e-09
7.9166407e-06
-5.6856181e-09
7.9224279e-06
-5.7872241e-09
7.9283117e-06
-5.8837655e-09
7.9342872e-06
-5.9755092e-09
7.9403499e-06
-6.0627069e-09
7.9464955e-06
-6.1455958e-09
7.9527199e-06
-6.2243996e-09
7.9590192e-06
-6.2993292e-09
7.9653898e-06
-6.3705831e-09
7.9718282e-06
-6.4383486e-09
7.978331e-06
-6.5028022e-09
7.9848951e-06
-6.5641101e-09
7.9915175e-06
-6.6224291e-09
7.9981954e-06
-6.6779068e-09
8.0049261e-06
-6.7306827e-09
8.011707e-06
-6.7808881e-09
8.0185356e-06
-6.8286468e-09
8.0254097e-06
-6.8740756e-09
8.032327e-06
-6.9172849e-09
8.0392854e-06
-6.9583786e-09
8.0462828e-06
-6.997455e-09
8.0533174e-06
-7.0346069e-09
8.0603873e-06
-7.0699218e-09
8.0674908e-06
-7.1034825e-09
8.0746262e-06
-7.1353673e-09
8.0817918e-06
-7.16565e-09
8.0889862e-06
-7.1944008e-09
8.0962079e-06
-7.2216858e-09
8.1034555e-06
-7.2475676e-09
8.1107276e-06
-7.2721055e-09
8.118023e-06
-7.2953558e-09
8.1253403e-06
-7.3173718e-09
8.1326785e-06
-7.3382038e-09
8.1400364e-06
-7.3578999e-09
8.1474129e-06
-7.3765054e-09
8.154807e-06
-7.3940634e-09
8.1622176e-06
-7.410615e-09
8.1696438e-06
-7.426199e-09
8.1770847e-06
-7.4408524e-09
8.1845393e-06
-7.4546104e-09
8.1920068e-06
-7.4675065e-09
8.1994864e-06
-7.4795725e-09
8.2069772e-06
-7.4908388e-09
8.2144785e-06
-7.5013341e-09
8.2219896e-06
-7.5110861e-09
8.2295097e-06
-7.5201211e-09
8.2370382e-06
-7.528464e-09
8.2445744e-06
-7.5361388e-09
8.2521175e-06
-7.5431684e-09
8.2596671e-06
-7.5495746e-09
8.2672225e-06
-7.5553782e-09
8.2747831e-06
-7.5605992e-09
8.2823483e-06
-7.5652568e-09
8.2899177e-06
-7.5693691e-09
8.2974907e-06
-7.5729537e-09
8.3050667e-06
-7.5760274e-09
8.3126453e-06
-7.5786063e-09
8.320226e-06
-7.5807058e-09
8.3278083e-06
-7.5823407e-09
8.3353919e-06
-7.5835252e-09
8.3429761e-06
-7.5842731e-09
8.3505607e-06
-7.5845974e-09
8.3581452e-06
-7.5845108e-09
8.3657293e-06
-7.5840255e-09
8.3733124e-06
-7.5831531e-09
8.3808943e-06
-7.581905e-09
8.3884746e-06
-7.5802919e-09
8.3960529e-06
-7.5783245e-09
8.403629e-06
-7.5760127e-09
8.4112023e-06
-7.5733664e-09
8.4187727e-06
-7.5703949e-09
8.4263398e-06
-7.5671074e-09
8.4339033e-06
-7.5635126e-09
8.441463e-06
-7.5596192e-09
8.4490184e-06
-7.5554351e-09
8.4565694e-06
-7.5509686e-09
8.4641156e-06
-7.5462271e-09
8.4716568e-06
-7.5412183e-09
8.4791928e-06
-7.5359494e-09
8.4867232e-06
-7.5304273e-09
8.4942479e-06
-7.5246588e-09
8.5017665e-06
-7.5186506e-09
8.5092789e-06
-7.5124089e-09
8.5167849e-06
-7.50594e-09
8.5242841e-06
-7.4992499e-09
8.5317765e-06
-7.4923443e-09
8.5392617e-06
-7.4852288e-09
8.5467396e-06
-7.4779088e-09
8.55421e-06
-7.4703895e-09
8.5616727e-06
-7.462676e-09
8.5691274e-06
-7.4547729e-09
8.5765741e-06
-7.4466846e-09
8.5840125e-06
-7.438415e-09
8.5914425e-06
-7.4299676e-09
8.5988639e-06
-7.4213444e-09
8.6062764e-06
-7.4125458e-09
8.61368e-06
-7.4035692e-09
8.6210744e-06
-7.3944058e-09
8.6284594e-06
-7.3850366e-09
8.6358349e-06
-7.375423e-09
8.6432004e-06
-7.3654908e-09
8.6505555e-06
-7.3550988e-09
8.6578994e-06
-7.3439741e-09
8.6652311e-06
-7.3316144e-09
8.672548e-06
-7.3169348e-09
8.6798462e-06
-7.2982255e-09
8.6871159e-06
-7.2696939e-09
8.6943446e-06
-7.2285969e-09
8.7014662e-06
-7.1216259e-09
8.7084945e-06
-7.0282343e-09
-6.1893999e-09
1.161182e-05
-5.8419726e-07
1.200495e-05
-6.3823024e-07
1.2327851e-05
-5.711688e-07
1.2590488e-05
-4.9829176e-07
1.2790349e-05
-4.1177082e-07
1.2933954e-05
-3.2608189e-07
1.3031469e-05
-2.5001931e-07
1.3092494e-05
-1.8528229e-07
1.312555e-05
-1.3176732e-07
1.3137844e-05
-8.854824e-08
1.3135183e-05
-5.4206223e-08
1.3122075e-05
-2.7200536e-08
1.3101878e-05
-6.0516262e-09
1.3077214e-05
1.0356178e-08
1.3050351e-05
2.2765723e-08
1.3023024e-05
3.1926339e-08
1.2996318e-05
3.8560981e-08
1.2970861e-05
4.3222951e-08
1.2947019e-05
4.6329216e-08
1.2924982e-05
4.821048e-08
1.2904823e-05
4.9127119e-08
1.2886536e-05
4.9283686e-08
1.2870069e-05
4.8841868e-08
1.2855345e-05
4.7930374e-08
1.2842269e-05
4.6652414e-08
1.2830744e-05
4.5091361e-08
1.2820673e-05
4.3315004e-08
1.281196e-05
4.1378756e-08
1.2804515e-05
3.9328089e-08
1.2798255e-05
3.7200401e-08
1.2793103e-05
3.5026482e-08
1.2788987e-05
3.2831658e-08
1.2785841e-05
3.0636729e-08
1.2783606e-05
2.845871e-08
1.2782223e-05
2.6311478e-08
1.2781642e-05
2.420634e-08
1.2781812e-05
2.2153293e-08
1.2782686e-05
2.0158794e-08
1.2784228e-05
1.8224514e-08
1.27864e-05
1.6353282e-08
1.2789169e-05
1.4547654e-08
1.2792505e-05
1.2809427e-08
1.2796377e-05
1.1139644e-08
1.2800756e-05
9.5386596e-09
1.2805617e-05
8.0062384e-09
1.2810933e-05
6.5416509e-09
1.2816679e-05
5.1437564e-09
1.2822834e-05
3.8110803e-09
1.2829376e-05
2.5417479e-09
1.2836284e-05
1.3337357e-09
1.2843544e-05
1.8200919e-10
1.2851145e-05
-9.1857894e-10
1.2859075e-05
-1.9695045e-09
1.2867321e-05
-2.9711584e-09
1.287587e-05
-3.9243032e-09
1.2884705e-05
-4.8300053e-09
1.2893813e-05
-5.6895177e-09
1.2903179e-05
-6.5042497e-09
1.2912787e-05
-7.2757401e-09
1.2922622e-05
-8.0056209e-09
1.2932671e-05
-8.6955788e-09
1.294292e-05
-9.3473024e-09
1.2953354e-05
-9.9624616e-09
1.296396e-05
-1.0542252e-08
1.2974723e-05
-1.1088116e-08
1.2985628e-05
-1.1602259e-08
1.2996665e-05
-1.2086684e-08
1.3007822e-05
-1.2543149e-08
1.3019088e-05
-1.2973263e-08
1.3030456e-05
-1.3378514e-08
1.3041917e-05
-1.3760277e-08
1.3053463e-05
-1.4119837e-08
1.3065087e-05
-1.4458397e-08
1.3076782e-05
-1.477709e-08
1.3088543e-05
-1.5076983e-08
1.3100364e-05
-1.5359086e-08
1.3112239e-05
-1.5624353e-08
1.3124162e-05
-1.5873689e-08
1.3136131e-05
-1.6107951e-08
1.3148139e-05
-1.6327949e-08
1.3160183e-05
-1.6534453e-08
1.3172258e-05
-1.6728191e-08
1.3184362e-05
-1.6909852e-08
1.3196489e-05
-1.7080088e-08
1.3208638e-05
-1.7239516e-08
1.3220804e-05
-1.7388719e-08
1.3232984e-05
-1.7528247e-08
1.3245177e-05
-1.7658621e-08
1.3257379e-05
-1.7780332e-08
1.3269587e-05
-1.7893844e-08
1.3281799e-05
-1.7999594e-08
1.3294014e-05
-1.8097996e-08
1.3306227e-05
-1.8189439e-08
1.3318439e-05
-1.8274289e-08
1.3330646e-05
-1.8352893e-08
1.3342848e-05
-1.8425577e-08
1.3355041e-05
-1.8492649e-08
1.3367225e-05
-1.8554399e-08
1.3379397e-05
-1.8611099e-08
1.3391558e-05
-1.8663009e-08
1.3403704e-05
-1.871037e-08
1.3415835e-05
-1.8753411e-08
1.3427949e-05
-1.879235e-08
1.3440046e-05
-1.8827388e-08
1.3452124e-05
-1.8858719e-08
1.3464182e-05
-1.8886524e-08
1.3476219e-05
-1.8910973e-08
1.3488234e-05
-1.8932228e-08
1.3500226e-05
-1.8950442e-08
1.3512194e-05
-1.8965758e-08
1.3524138e-05
-1.8978312e-08
1.3536056e-05
-1.8988232e-08
1.3547948e-05
-1.8995641e-08
1.3559813e-05
-1.9000652e-08
1.3571651e-05
-1.9003375e-08
1.3583461e-05
-1.9003911e-08
1.3595241e-05
-1.9002359e-08
1.3606993e-05
-1.899881e-08
1.3618714e-05
-1.8993351e-08
1.3630404e-05
-1.8986065e-08
1.3642064e-05
-1.897703e-08
1.3653692e-05
-1.8966321e-08
1.3665288e-05
-1.8954008e-08
1.3676852e-05
-1.8940158e-08
1.3688383e-05
-1.8924835e-08
1.369988e-05
-1.8908099e-08
1.3711344e-05
-1.8890008e-08
1.3722774e-05
-1.8870616e-08
1.3734169e-05
-1.8849975e-08
1.374553e-05
-1.8828135e-08
1.3756855e-05
-1.8805143e-08
1.3768146e-05
-1.8781044e-08
1.37794e-05
-1.8755881e-08
1.3790619e-05
-1.8729695e-08
1.3801801e-05
-1.8702525e-08
1.3812947e-05
-1.8674408e-08
1.3824056e-05
-1.8645381e-08
1.3835129e-05
-1.8615477e-08
1.3846164e-05
-1.8584728e-08
1.3857162e-05
-1.8553168e-08
1.3868122e-05
-1.8520824e-08
1.3879044e-05
-1.8487727e-08
1.3889929e-05
-1.8453903e-08
1.3900775e-05
-1.8419379e-08
1.3911583e-05
-1.8384182e-08
1.3922353e-05
-1.8348334e-08
1.3933084e-05
-1.8311859e-08
1.3943777e-05
-1.8274781e-08
1.395443e-05
-1.8237121e-08
1.3965045e-05
-1.81989e-08
1.397562e-05
-1.8160138e-08
1.3986157e-05
-1.8120855e-08
1.3996654e-05
-1.8081069e-08
1.4007112e-05
-1.8040799e-08
1.401753e-05
-1.8000062e-08
1.4027908e-05
-1.7958875e-08
1.4038247e-05
-1.7917254e-08
1.4048546e-05
-1.7875216e-08
1.4058806e-05
-1.7832775e-08
1.4069025e-05
-1.7789947e-08
1.4079205e-05
-1.7746746e-08
1.4089345e-05
-1.7703186e-08
1.4099444e-05
-1.7659281e-08
1.4109504e-05
-1.7615043e-08
1.4119523e-05
-1.7570486e-08
1.4129503e-05
-1.7525622e-08
1.4139442e-05
-1.7480463e-08
1.4149341e-05
-1.743502e-08
1.41592e-05
-1.7389306e-08
1.4169019e-05
-1.7343331e-08
1.4178797e-05
-1.7297106e-08
1.4188535e-05
-1.7250642e-08
1.4198233e-05
-1.7203948e-08
1.4207891e-05
-1.7157035e-08
1.4217509e-05
-1.7109912e-08
1.4227086e-05
-1.7062588e-08
1.4236623e-05
-1.7015072e-08
1.424612e-05
-1.6967373e-08
1.4255577e-05
-1.69195e-08
1.4264994e-05
-1.6871459e-08
1.427437e-05
-1.6823258e-08
1.4283707e-05
-1.6774905e-08
1.4293003e-05
-1.6726404e-08
1.430226e-05
-1.6677759e-08
1.4311476e-05
-1.6628972e-08
1.4320653e-05
-1.6580039e-08
1.4329789e-05
-1.6530946e-08
1.4338886e-05
-1.6481667e-08
1.4347942e-05
-1.6432145e-08
1.4356959e-05
-1.6382274e-08
1.4365936e-05
-1.6331861e-08
1.4374873e-05
-1.6280542e-08
1.4383769e-05
-1.6227697e-08
1.4392624e-05
-1.6171962e-08
1.4401437e-05
-1.6111795e-08
1.4410206e-05
-1.6038618e-08
1.4418936e-05
-1.595889e-08
1.4427567e-05
-1.5752181e-08
1.4436247e-05
-1.5708385e-08
-1.3426629e-08
1.0264591e-05
-1.0137514e-06
1.0445078e-05
-8.1871738e-07
1.0511161e-05
-6.3725129e-07
1.0523065e-05
-5.1019592e-07
1.0502556e-05
-3.912613e-07
1.0468105e-05
-2.9163112e-07
1.0430086e-05
-2.1200071e-07
1.0393938e-05
-1.4913391e-07
1.0362661e-05
-1.0049082e-07
1.0337764e-05
-6.3651295e-08
1.031982e-05
-3.6262086e-08
1.0308837e-05
-1.621725e-08
1.0304469e-05
-1.683657e-09
1.0306137e-05
8.6876884e-09
1.0313073e-05
1.5830052e-08
1.0324454e-05
2.0545382e-08
1.0339545e-05
2.3469734e-08
1.035769e-05
2.5078077e-08
1.0378306e-05
2.5713392e-08
1.0400888e-05
2.5628985e-08
1.0425002e-05
2.501279e-08
1.0450281e-05
2.4004361e-08
1.0476415e-05
2.2708198e-08
1.0503142e-05
2.1203374e-08
1.0530244e-05
1.9550371e-08
1.0557539e-05
1.7795961e-08
1.0584878e-05
1.5976689e-08
1.0612135e-05
1.4121369e-08
1.063921e-05
1.2252867e-08
1.0666021e-05
1.0389419e-08
1.0692502e-05
8.5456164e-09
1.0718601e-05
6.7332091e-09
1.0744275e-05
4.9618211e-09
1.0769494e-05
3.2401531e-09
1.0794229e-05
1.5766016e-09
1.0818445e-05
-9.5303744e-12
1.0842119e-05
-1.5208834e-09
1.0865253e-05
-2.9751972e-09
1.0887847e-05
-4.3695539e-09
1.0909901e-05
-5.7011796e-09
1.0931418e-05
-6.9689861e-09
1.09524e-05
-8.172743e-09
1.0972853e-05
-9.3128859e-09
1.0992782e-05
-1.0390404e-08
1.1012195e-05
-1.1406703e-08
1.10311e-05
-1.2363495e-08
1.1049506e-05
-1.3262706e-08
1.1067424e-05
-1.4106405e-08
1.1084862e-05
-1.489669e-08
1.1101832e-05
-1.5635676e-08
1.1118337e-05
-1.6322851e-08
1.1134377e-05
-1.6958895e-08
1.1149956e-05
-1.7549041e-08
1.1165083e-05
-1.8097944e-08
1.1179768e-05
-1.8608768e-08
1.1194022e-05
-1.9083839e-08
1.1207857e-05
-1.9525031e-08
1.1221287e-05
-1.9933976e-08
1.1234323e-05
-2.0312182e-08
1.1246979e-05
-2.0661103e-08
1.1259265e-05
-2.098216e-08
1.1271195e-05
-2.1276747e-08
1.1282778e-05
-2.1546251e-08
1.1294028e-05
-2.1791884e-08
1.1304955e-05
-2.2014768e-08
1.1315569e-05
-2.2216199e-08
1.132588e-05
-2.2397508e-08
1.1335896e-05
-2.2559962e-08
1.1345628e-05
-2.2704762e-08
1.1355082e-05
-2.2833035e-08
1.1364268e-05
-2.2945826e-08
1.1373192e-05
-2.304411e-08
1.1381863e-05
-2.3128795e-08
1.1390286e-05
-2.320073e-08
1.139847e-05
-2.3260708e-08
1.140642e-05
-2.3309477e-08
1.1414144e-05
-2.3347736e-08
1.1421646e-05
-2.3376145e-08
1.1428934e-05
-2.3395325e-08
1.1436011e-05
-2.3405861e-08
1.1442885e-05
-2.3408303e-08
1.144956e-05
-2.340317e-08
1.1456041e-05
-2.3390952e-08
1.1462333e-05
-2.3372109e-08
1.1468441e-05
-2.3347074e-08
1.1474369e-05
-2.3316255e-08
1.148012e-05
-2.3280036e-08
1.14857e-05
-2.3238776e-08
1.1491113e-05
-2.3192816e-08
1.1496362e-05
-2.3142474e-08
1.150145e-05
-2.3088049e-08
1.1506382e-05
-2.3029821e-08
1.151116e-05
-2.2968055e-08
1.1515789e-05
-2.2902998e-08
1.1520271e-05
-2.2834882e-08
1.152461e-05
-2.2763925e-08
1.1528807e-05
-2.2690331e-08
1.1532867e-05
-2.2614291e-08
1.1536792e-05
-2.2535985e-08
1.1540585e-05
-2.2455581e-08
1.1544247e-05
-2.2373237e-08
1.1547783e-05
-2.22891e-08
1.1551194e-05
-2.2203308e-08
1.1554483e-05
-2.2115992e-08
1.1557651e-05
-2.2027272e-08
1.1560702e-05
-2.1937263e-08
1.1563637e-05
-2.184607e-08
1.1566459e-05
-2.1753795e-08
1.1569169e-05
-2.1660529e-08
1.1571769e-05
-2.1566361e-08
1.1574262e-05
-2.1471372e-08
1.157665e-05
-2.137564e-08
1.1578933e-05
-2.1279236e-08
1.1581115e-05
-2.1182227e-08
1.1583196e-05
-2.1084677e-08
1.1585179e-05
-2.0986645e-08
1.1587065e-05
-2.0888185e-08
1.1588855e-05
-2.078935e-08
1.1590552e-05
-2.0690189e-08
1.1592157e-05
-2.0590747e-08
1.1593671e-05
-2.0491066e-08
1.1595096e-05
-2.0391186e-08
1.1596433e-05
-2.0291146e-08
1.1597684e-05
-2.0190979e-08
1.159885e-05
-2.0090719e-08
1.1599932e-05
-1.9990398e-08
1.1600932e-05
-1.9890043e-08
1.1601851e-05
-1.9789681e-08
1.160269e-05
-1.968934e-08
1.1603451e-05
-1.9589041e-08
1.1604135e-05
-1.9488809e-08
1.1604743e-05
-1.9388662e-08
1.1605275e-05
-1.9288623e-08
1.1605734e-05
-1.9188708e-08
1.1606121e-05
-1.9088936e-08
1.1606436e-05
-1.8989323e-08
1.160668e-05
-1.8889884e-08
1.1606855e-05
-1.8790634e-08
1.1606962e-05
-1.8691586e-08
1.1607002e-05
-1.8592752e-08
1.1606975e-05
-1.8494146e-08
1.1606883e-05
-1.8395779e-08
1.1606727e-05
-1.829766e-08
1.1606507e-05
-1.81998e-08
1.1606225e-05
-1.8102209e-08
1.1605882e-05
-1.8004895e-08
1.1605478e-05
-1.7907867e-08
1.1605014e-05
-1.7811132e-08
1.1604492e-05
-1.7714699e-08
1.1603912e-05
-1.7618574e-08
1.1603274e-05
-1.7522763e-08
1.1602581e-05
-1.7427274e-08
1.1601832e-05
-1.7332112e-08
1.1601028e-05
-1.7237282e-08
1.1600171e-05
-1.714279e-08
1.1599261e-05
-1.7048641e-08
1.1598298e-05
-1.6954839e-08
1.1597284e-05
-1.686139e-08
1.159622e-05
-1.6768297e-08
1.1595105e-05
-1.6675565e-08
1.1593942e-05
-1.6583197e-08
1.159273e-05
-1.6491196e-08
1.159147e-05
-1.6399567e-08
1.1590164e-05
-1.6308313e-08
1.158881e-05
-1.6217437e-08
1.1587412e-05
-1.6126942e-08
1.1585968e-05
-1.603683e-08
1.158448e-05
-1.5947104e-08
1.1582949e-05
-1.5857768e-08
1.1581374e-05
-1.5768823e-08
1.1579757e-05
-1.5680271e-08
1.1578099e-05
-1.5592115e-08
1.1576399e-05
-1.5504357e-08
1.1574659e-05
-1.5416999e-08
1.1572879e-05
-1.5330041e-08
1.157106e-05
-1.5243487e-08
1.1569202e-05
-1.5157337e-08
1.1567307e-05
-1.5071592e-08
1.1565373e-05
-1.4986254e-08
1.1563403e-05
-1.4901322e-08
1.1561397e-05
-1.4816798e-08
1.1559355e-05
-1.4732682e-08
1.1557277e-05
-1.4648972e-08
1.1555165e-05
-1.4565666e-08
1.1553019e-05
-1.4482761e-08
1.1550839e-05
-1.440025e-08
1.1548626e-05
-1.4318117e-08
1.1546381e-05
-1.423634e-08
1.1544104e-05
-1.4154873e-08
1.1541795e-05
-1.4073639e-08
1.1539456e-05
-1.3992504e-08
1.1537086e-05
-1.3911239e-08
1.1534688e-05
-1.3829543e-08
1.1532263e-05
-1.3746834e-08
1.1529815e-05
-1.3664074e-08
1.1527355e-05
-1.3578342e-08
1.1524919e-05
-1.3522845e-08
1.1522576e-05
-1.3408917e-08
1.1520643e-05
-1.3775893e-08
-1.2153696e-08
7.4522902e-06
-1.1595754e-06
7.3381959e-06
-7.0462308e-07
7.2160736e-06
-5.1512898e-07
7.1111125e-06
-4.0523483e-07
7.0302833e-06
-3.104321e-07
6.973677e-06
-2.350249e-07
6.9369252e-06
-1.7524886e-07
6.9159117e-06
-1.2812041e-07
6.9073396e-06
-9.1918701e-08
6.9085656e-06
-6.4877369e-08
6.917495e-06
-4.519148e-08
6.9324755e-06
-3.119769e-08
6.9522515e-06
-2.145971e-08
6.9757319e-06
-1.4792712e-08
7.0018757e-06
-1.0313761e-08
7.0298388e-06
-7.4176786e-09
7.0589547e-06
-5.6461596e-09
7.0886914e-06
-4.6586594e-09
7.1186201e-06
-4.215299e-09
7.148396e-06
-4.1469054e-09
7.1777431e-06
-4.3342972e-09
7.2064415e-06
-4.6940297e-09
7.2343173e-06
-5.1676096e-09
7.2612345e-06
-5.7138089e-09
7.2870882e-06
-6.3033637e-09
7.3117995e-06
-6.9153248e-09
7.3353107e-06
-7.5345595e-09
7.3575822e-06
-8.1500482e-09
7.3785888e-06
-8.7537218e-09
7.3983178e-06
-9.339658e-09
7.416767e-06
-9.9035132e-09
7.4339423e-06
-1.044209e-08
7.4498571e-06
-1.0953005e-08
7.4645315e-06
-1.1434214e-08
7.4779925e-06
-1.1884414e-08
7.4902886e-06
-1.2305659e-08
7.5014637e-06
-1.2695985e-08
7.5115434e-06
-1.3054919e-08
7.5205601e-06
-1.338619e-08
7.5285497e-06
-1.3690826e-08
7.5355501e-06
-1.3969353e-08
7.5415996e-06
-1.42223e-08
7.546737e-06
-1.4450312e-08
7.5510008e-06
-1.4654184e-08
7.554429e-06
-1.4834831e-08
7.5570587e-06
-1.4993252e-08
7.5589265e-06
-1.5130499e-08
7.5600678e-06
-1.5247659e-08
7.5605169e-06
-1.5345825e-08
7.5603075e-06
-1.5426297e-08
7.5594742e-06
-1.548956e-08
7.5580508e-06
-1.5535499e-08
7.5560671e-06
-1.5565333e-08
7.5535501e-06
-1.5580944e-08
7.5505253e-06
-1.5583906e-08
7.5470168e-06
-1.5575418e-08
7.5430482e-06
-1.5556419e-08
7.5386419e-06
-1.5527685e-08
7.5338196e-06
-1.5489892e-08
7.5286022e-06
-1.5443665e-08
7.5230096e-06
-1.5389599e-08
7.5170612e-06
-1.5328267e-08
7.5107752e-06
-1.5260244e-08
7.5041693e-06
-1.5186044e-08
7.4972607e-06
-1.5106108e-08
7.4900654e-06
-1.502092e-08
7.4825988e-06
-1.493097e-08
7.4748756e-06
-1.4836726e-08
7.4669095e-06
-1.4738636e-08
7.4587136e-06
-1.4637118e-08
7.4503003e-06
-1.4532562e-08
7.4416815e-06
-1.4425329e-08
7.4328685e-06
-1.431575e-08
7.4238719e-06
-1.4204132e-08
7.4147019e-06
-1.4090758e-08
7.4053683e-06
-1.397589e-08
7.3958804e-06
-1.3859772e-08
7.3862468e-06
-1.3742627e-08
7.3764762e-06
-1.3624665e-08
7.3665764e-06
-1.3506078e-08
7.3565551e-06
-1.3387045e-08
7.3464197e-06
-1.326773e-08
7.336177e-06
-1.3148285e-08
7.3258338e-06
-1.3028853e-08
7.3153963e-06
-1.290956e-08
7.3048705e-06
-1.2790527e-08
7.2942624e-06
-1.2671861e-08
7.2835772e-06
-1.2553663e-08
7.2728204e-06
-1.2436023e-08
7.261997e-06
-1.2319024e-08
7.2511117e-06
-1.220274e-08
7.2401691e-06
-1.208724e-08
7.2291736e-06
-1.1972584e-08
7.2181295e-06
-1.1858828e-08
7.2070406e-06
-1.1746019e-08
7.1959109e-06
-1.1634202e-08
7.184744e-06
-1.1523415e-08
7.1735434e-06
-1.1413691e-08
7.1623124e-06
-1.1305059e-08
7.1510544e-06
-1.1197546e-08
7.1397723e-06
-1.1091171e-08
7.1284692e-06
-1.0985953e-08
7.1171478e-06
-1.0881907e-08
7.1058108e-06
-1.0779043e-08
7.0944609e-06
-1.0677372e-08
7.0831006e-06
-1.0576898e-08
7.0717321e-06
-1.0477627e-08
7.0603579e-06
-1.0379559e-08
7.0489801e-06
-1.0282695e-08
7.0376007e-06
-1.0187033e-08
7.0262219e-06
-1.0092569e-08
7.0148456e-06
-9.9992983e-09
7.0034736e-06
-9.9072139e-09
6.9921076e-06
-9.8163084e-09
6.9807495e-06
-9.7265731e-09
6.9694009e-06
-9.6379981e-09
6.9580633e-06
-9.5505728e-09
6.9467382e-06
-9.4642858e-09
6.9354271e-06
-9.3791249e-09
6.9241315e-06
-9.2950773e-09
6.9128525e-06
-9.2121297e-09
6.9015916e-06
-9.1302684e-09
6.89035e-06
-9.0494791e-09
6.8791287e-06
-8.9697474e-09
6.8679291e-06
-8.8910583e-09
6.8567521e-06
-8.813397e-09
6.8455988e-06
-8.7367481e-09
6.8344702e-06
-8.6610962e-09
6.8233673e-06
-8.586426e-09
6.812291e-06
-8.5127218e-09
6.8012421e-06
-8.4399682e-09
6.7902216e-06
-8.3681495e-09
6.7792302e-06
-8.2972504e-09
6.7682688e-06
-8.2272552e-09
6.757338e-06
-8.1581486e-09
6.7464386e-06
-8.0899154e-09
6.7355712e-06
-8.0225404e-09
6.7247366e-06
-7.9560086e-09
6.7139353e-06
-7.890305e-09
6.703168e-06
-7.825415e-09
6.6924352e-06
-7.761324e-09
6.6817374e-06
-7.6980177e-09
6.6710752e-06
-7.635482e-09
6.6604491e-06
-7.573703e-09
6.6498596e-06
-7.512667e-09
6.6393071e-06
-7.4523606e-09
6.628792e-06
-7.3927705e-09
6.6183147e-06
-7.3338838e-09
6.6078757e-06
-7.2756876e-09
6.5974753e-06
-7.2181694e-09
6.5871138e-06
-7.1613169e-09
6.5767917e-06
-7.1051181e-09
6.5665091e-06
-7.0495612e-09
6.5562665e-06
-6.9946347e-09
6.546064e-06
-6.9403271e-09
6.535902e-06
-6.8866274e-09
6.5257807e-06
-6.8335249e-09
6.5157003e-06
-6.781009e-09
6.5056611e-06
-6.7290693e-09
6.4956632e-06
-6.6776958e-09
6.4857069e-06
-6.6268785e-09
6.4757923e-06
-6.576608e-09
6.4659196e-06
-6.5268748e-09
6.456089e-06
-6.4776697e-09
6.4463005e-06
-6.4289839e-09
6.4365544e-06
-6.3808086e-09
6.4268507e-06
-6.3331353e-09
6.4171896e-06
-6.2859559e-09
6.407571e-06
-6.2392621e-09
6.3979953e-06
-6.1930462e-09
6.3884623e-06
-6.1473003e-09
6.3789722e-06
-6.1020171e-09
6.369525e-06
-6.057189e-09
6.3601208e-06
-6.012809e-09
6.3507597e-06
-5.96887e-09
6.3414415e-06
-5.925365e-09
6.3321665e-06
-5.8822872e-09
6.3229345e-06
-5.83963e-09
6.3137457e-06
-5.7973867e-09
6.3045999e-06
-5.7555508e-09
6.2954972e-06
-5.7141156e-09
6.2864376e-06
-5.6730747e-09
6.277421e-06
-5.6324211e-09
6.2684475e-06
-5.5921476e-09
6.259517e-06
-5.5522461e-09
6.2506294e-06
-5.5127067e-09
6.2417848e-06
-5.4735167e-09
6.2329832e-06
-5.4346576e-09
6.2242244e-06
-5.3961012e-09
6.2155085e-06
-5.3578017e-09
6.2068357e-06
-5.3196853e-09
6.1982061e-06
-5.2816241e-09
6.18962e-06
-5.2434886e-09
6.1810781e-06
-5.2048463e-09
6.1725812e-06
-5.1671851e-09
6.164129e-06
-5.1262138e-09
6.1557266e-06
-5.120382e-09
6.1473972e-06
-5.0795224e-09
6.1391413e-06
-5.5200328e-09
-6.4005313e-09
4.7661572e-06
-8.7733466e-07
4.5007611e-06
-4.3922701e-07
4.3110959e-06
-3.2546375e-07
4.1599583e-06
-2.5409714e-07
4.0441699e-06
-1.9464375e-07
3.9566744e-06
-1.4752935e-07
3.8910207e-06
-1.0959517e-07
3.8424664e-06
-7.9566124e-08
3.8071311e-06
-5.6583353e-08
3.781793e-06
-3.9539342e-08
3.7638623e-06
-2.72607e-08
3.7513119e-06
-1.8647315e-08
3.7426144e-06
-1.2762243e-08
3.7366376e-06
-8.8159062e-09
3.7325114e-06
-6.1875571e-09
3.729561e-06
-4.467249e-09
3.7272816e-06
-3.3667713e-09
3.7253037e-06
-2.6807578e-09
3.7233576e-06
-2.269207e-09
3.7212481e-06
-2.0374311e-09
3.7188356e-06
-1.9217546e-09
3.7160215e-06
-1.8799386e-09
3.7127381e-06
-1.8842259e-09
3.7089408e-06
-1.9164775e-09
3.7046023e-06
-1.9648995e-09
3.6997088e-06
-2.0218582e-09
3.6942567e-06
-2.0824343e-09
3.6882501e-06
-2.1434759e-09
3.6816994e-06
-2.2029819e-09
3.6746195e-06
-2.2597008e-09
3.6670288e-06
-2.3128689e-09
3.6589487e-06
-2.3620239e-09
3.6504026e-06
-2.4068926e-09
3.6414156e-06
-2.4472229e-09
3.632014e-06
-2.4827673e-09
3.6222247e-06
-2.5163198e-09
3.6120754e-06
-2.5467338e-09
3.601592e-06
-2.5714982e-09
3.5907981e-06
-2.5923482e-09
3.5797174e-06
-2.6101052e-09
3.5683732e-06
-2.6250776e-09
3.5567883e-06
-2.6374208e-09
3.5449852e-06
-2.6472448e-09
3.5329857e-06
-2.6546576e-09
3.5208106e-06
-2.659778e-09
3.5084801e-06
-2.662734e-09
3.4960133e-06
-2.6636584e-09
3.4834283e-06
-2.6626911e-09
3.4707424e-06
-2.6599584e-09
3.4579719e-06
-2.6557441e-09
3.4451325e-06
-2.6501753e-09
3.4322399e-06
-2.6429103e-09
3.4193085e-06
-2.6338916e-09
3.406351e-06
-2.6234474e-09
3.393379e-06
-2.611884e-09
3.3804029e-06
-2.5994044e-09
3.3674327e-06
-2.5861338e-09
3.3544771e-06
-2.5721482e-09
3.3415447e-06
-2.5574976e-09
3.3286433e-06
-2.5422219e-09
3.31578e-06
-2.5263599e-09
3.3029617e-06
-2.5099505e-09
3.2901945e-06
-2.4930492e-09
3.2774842e-06
-2.4757018e-09
3.264836e-06
-2.4579264e-09
3.2522548e-06
-2.4397589e-09
3.2397451e-06
-2.4212429e-09
3.2273108e-06
-2.4024195e-09
3.2149555e-06
-2.3833303e-09
3.2026824e-06
-2.3640168e-09
3.1904944e-06
-2.3445174e-09
3.1783939e-06
-2.3248674e-09
3.1663832e-06
-2.3050987e-09
3.1544644e-06
-2.2852404e-09
3.1426389e-06
-2.2653188e-09
3.1309084e-06
-2.2453583e-09
3.119274e-06
-2.2253812e-09
3.1077368e-06
-2.2054083e-09
3.0962976e-06
-2.1854587e-09
3.084957e-06
-2.1655501e-09
3.0737157e-06
-2.1456989e-09
3.0625739e-06
-2.1259205e-09
3.0515318e-06
-2.1062287e-09
3.0405896e-06
-2.0866367e-09
3.0297472e-06
-2.0671565e-09
3.0190045e-06
-2.0477988e-09
3.0083612e-06
-2.0285739e-09
2.997817e-06
-2.0094908e-09
2.9873716e-06
-1.9905578e-09
2.9770243e-06
-1.9717826e-09
2.9667747e-06
-1.9531718e-09
2.9566222e-06
-1.9347315e-09
2.9465661e-06
-1.9164672e-09
2.9366057e-06
-1.8983836e-09
2.9267401e-06
-1.8804848e-09
2.9169687e-06
-1.8627744e-09
2.9072905e-06
-1.8452556e-09
2.8977048e-06
-1.827931e-09
2.8882105e-06
-1.8108026e-09
2.8788069e-06
-1.7938722e-09
2.8694928e-06
-1.777141e-09
2.8602675e-06
-1.7606101e-09
2.8511299e-06
-1.7442799e-09
2.842079e-06
-1.7281508e-09
2.8331138e-06
-1.7122226e-09
2.8242334e-06
-1.6964951e-09
2.8154368e-06
-1.6809677e-09
2.8067228e-06
-1.6656396e-09
2.7980906e-06
-1.6505096e-09
2.7895392e-06
-1.6355768e-09
2.7810675e-06
-1.6208395e-09
2.7726745e-06
-1.6062964e-09
2.7643592e-06
-1.5919456e-09
2.7561207e-06
-1.5777853e-09
2.7479579e-06
-1.5638135e-09
2.7398699e-06
-1.5500283e-09
2.7318558e-06
-1.5364273e-09
2.7239145e-06
-1.5230083e-09
2.7160452e-06
-1.509769e-09
2.7082468e-06
-1.496707e-09
2.7005185e-06
-1.4838197e-09
2.6928593e-06
-1.4711049e-09
2.6852684e-06
-1.4585597e-09
2.6777448e-06
-1.4461817e-09
2.6702878e-06
-1.4339682e-09
2.6628963e-06
-1.4219167e-09
2.6555696e-06
-1.4100244e-09
2.6483067e-06
-1.3982888e-09
2.641107e-06
-1.3867072e-09
2.6339696e-06
-1.375277e-09
2.6268936e-06
-1.3639956e-09
2.6198783e-06
-1.3528603e-09
2.6129229e-06
-1.3418685e-09
2.6060267e-06
-1.3310177e-09
2.5991889e-06
-1.3203053e-09
2.5924087e-06
-1.3097288e-09
2.5856854e-06
-1.2992856e-09
2.5790184e-06
-1.2889732e-09
2.5724069e-06
-1.2787892e-09
2.5658502e-06
-1.2687312e-09
2.5593477e-06
-1.2587967e-09
2.5528986e-06
-1.2489833e-09
2.5465024e-06
-1.2392889e-09
2.5401585e-06
-1.229711e-09
2.533866e-06
-1.2202475e-09
2.5276246e-06
-1.2108962e-09
2.5214335e-06
-1.2016549e-09
2.5152921e-06
-1.1925215e-09
2.5091999e-06
-1.183494e-09
2.5031563e-06
-1.1745702e-09
2.4971607e-06
-1.1657484e-09
2.4912126e-06
-1.1570264e-09
2.4853115e-06
-1.1484023e-09
2.4794567e-06
-1.1398744e-09
2.4736478e-06
-1.1314408e-09
2.4678843e-06
-1.1230997e-09
2.4621656e-06
-1.1148495e-09
2.4564913e-06
-1.1066883e-09
2.4508609e-06
-1.0986146e-09
2.4452738e-06
-1.0906269e-09
2.4397296e-06
-1.0827235e-09
2.4342279e-06
-1.0749028e-09
2.4287682e-06
-1.0671636e-09
2.42335e-06
-1.0595042e-09
2.417973e-06
-1.0519234e-09
2.4126366e-06
-1.0444197e-09
2.4073405e-06
-1.0369918e-09
2.4020841e-06
-1.0296385e-09
2.3968672e-06
-1.0223585e-09
2.3916893e-06
-1.0151505e-09
2.3865501e-06
-1.0080135e-09
2.381449e-06
-1.0009461e-09
2.3763857e-06
-9.9394734e-10
2.3713599e-06
-9.8701598e-10
2.3663712e-06
-9.8015094e-10
2.3614192e-06
-9.7335114e-10
2.3565035e-06
-9.666155e-10
2.3516239e-06
-9.599429e-10
2.3467798e-06
-9.5333233e-10
2.341971e-06
-9.4678268e-10
2.3371972e-06
-9.4029285e-10
2.332458e-06
-9.3386177e-10
2.3277531e-06
-9.2748815e-10
2.3230821e-06
-9.2117067e-10
2.3184447e-06
-9.1490761e-10
2.3138407e-06
-9.0869684e-10
2.3092697e-06
-9.0253512e-10
2.3047315e-06
-8.9641771e-10
2.3002257e-06
-8.9033662e-10
2.2957522e-06
-8.8427831e-10
2.2913108e-06
-8.782223e-10
2.2869013e-06
-8.7212076e-10
2.2825238e-06
-8.6597903e-10
2.2781784e-06
-8.5945226e-10
2.2738651e-06
-8.5395857e-10
2.2695835e-06
-8.4456495e-10
2.2653192e-06
-8.5610557e-10
2.2610822e-06
-8.4246571e-10
2.2565264e-06
-9.6424889e-10
-2.2162584e-09
2.4824917e-06
2.0432647e-06
1.7178009e-06
1.4637038e-06
1.26906e-06
1.1215307e-06
1.0119355e-06
9.3236938e-07
8.7578603e-07
8.3624668e-07
8.0898598e-07
7.9033867e-07
7.7757643e-07
7.6876052e-07
7.6257296e-07
7.5810571e-07
7.5473894e-07
7.5205818e-07
7.4978898e-07
7.4775154e-07
7.4582979e-07
7.4394985e-07
7.4206562e-07
7.4014915e-07
7.3818425e-07
7.3616239e-07
7.3407995e-07
7.3193648e-07
7.297335e-07
7.274738e-07
7.2516093e-07
7.227989e-07
7.2039201e-07
7.1794479e-07
7.1546202e-07
7.129457e-07
7.1039897e-07
7.0782747e-07
7.0523512e-07
7.0262502e-07
6.9999994e-07
6.9736252e-07
6.9471528e-07
6.9206062e-07
6.8940084e-07
6.8673811e-07
6.8407445e-07
6.8141176e-07
6.787518e-07
6.7609606e-07
6.7344588e-07
6.7080297e-07