/*--------------------------------*- C++ -*----------------------------------*\
  =========                 |
  \\      /  F ield         | OpenFOAM: The Open Source CFD Toolbox
   \\    /   O peration     | Website:  https://openfoam.org
    \\  /    A nd           | Version:  10
     \\/     M anipulation  |
\*---------------------------------------------------------------------------*/
FoamFile
{
    format      ascii;
    class       volScalarField;
    location    "5000/FLUID";
    object      alphaEffFluid;
}
// * * * * * * * * * * * * * * * * * * * * * * * * * * * * * * * * * * * * * //

dimensions      [1 -1 -1 0 0 0 0];

internalField   nonuniform List<scalar> 
1200
(
0.0023116534
0.0023810222
0.0024694428
0.002554154
0.0026331881
0.0027055191
0.0027699434
0.0028265735
0.0028761357
0.0029194861
0.0029575071
0.0029910362
0.0030208234
0.0030475047
0.0030716156
0.0030936057
0.003113878
0.0031327635
0.0031505277
0.003167403
0.0031835854
0.0031992374
0.0032144919
0.0032294573
0.0032442205
0.0032588507
0.0032734016
0.0032879148
0.0033024209
0.0033169422
0.0033314938
0.0033460852
0.0033607212
0.0033754028
0.0033901284
0.0034048942
0.0034196954
0.0034345255
0.0034493771
0.003464242
0.003479112
0.0034939788
0.0035088344
0.0035236706
0.00353848
0.0035532551
0.0035679888
0.0035826747
0.0035973063
0.0036118779
0.0036263839
0.0036408192
0.0036551792
0.0036694599
0.0036836574
0.0036977685
0.0037117903
0.0037257203
0.0037395562
0.0037532962
0.0037669386
0.003780482
0.0037939255
0.0038072683
0.0038205132
0.0038336603
0.0038467092
0.0038596595
0.0038725111
0.003885264
0.0038979182
0.0039104738
0.0039229309
0.0039352899
0.003947551
0.0039597146
0.0039717812
0.0039837514
0.0039956257
0.0040074047
0.0040190892
0.0040306799
0.0040421775
0.004053583
0.0040648971
0.0040761208
0.004087255
0.0040983006
0.0041092585
0.0041201298
0.0041309154
0.0041416164
0.0041522337
0.0041627684
0.0041732215
0.004183594
0.0041938869
0.0042041014
0.0042142383
0.0042242988
0.0042342839
0.0042441945
0.0042540316
0.0042637963
0.0042734895
0.0042831123
0.0042926655
0.0043021502
0.0043115672
0.0043209176
0.0043302022
0.0043394219
0.0043485776
0.0043576702
0.0043667006
0.0043756697
0.0043845781
0.0043934269
0.0044022168
0.0044109485
0.0044196229
0.0044282408
0.0044368028
0.0044453098
0.0044537625
0.0044621615
0.0044705077
0.0044788015
0.0044870439
0.0044952353
0.0045033765
0.0045114681
0.0045195107
0.004527505
0.0045354514
0.0045433507
0.0045512034
0.0045590101
0.0045667713
0.0045744875
0.0045821594
0.0045897874
0.004597372
0.0046049137
0.0046124131
0.0046198706
0.0046272867
0.0046346618
0.0046419965
0.0046492911
0.0046565461
0.0046637619
0.004670939
0.0046780777
0.0046851786
0.0046922418
0.004699268
0.0047062574
0.0047132104
0.0047201274
0.0047270087
0.0047338548
0.0047406659
0.0047474424
0.0047541847
0.004760893
0.0047675677
0.0047742091
0.0047808176
0.0047873934
0.0047939369
0.0048004482
0.0048069278
0.004813376
0.0048197929
0.0048261789
0.0048325343
0.0048388592
0.0048451541
0.0048514191
0.0048576546
0.0048638606
0.0048700376
0.0048761858
0.0048823053
0.0048883964
0.0048944593
0.0049004944
0.0049065016
0.0049124812
0.0049184334
0.004924358
0.0049302549
0.0049361237
0.0049419617
0.0049477714
0.0049535194
0.004959292
0.0049645153
0.0049709772
0.0023275255
0.0024167935
0.0025037279
0.0025763721
0.0026401061
0.0026953929
0.0027426612
0.0027833414
0.0028188136
0.002850235
0.0028785884
0.0029046681
0.0029291096
0.0029524353
0.0029750596
0.0029972293
0.0030190955
0.0030407694
0.0030623243
0.0030837987
0.0031052094
0.0031265604
0.0031478465
0.0031690581
0.0031901827
0.003211207
0.0032321176
0.0032529017
0.0032735477
0.003294045
0.0033143843
0.0033345574
0.0033545575
0.0033743785
0.0033940156
0.0034134649
0.0034327231
0.0034517872
0.0034706554
0.0034893264
0.0035077998
0.0035260755
0.0035441536
0.0035620345
0.0035797188
0.0035972076
0.0036145018
0.0036316028
0.0036485121
0.0036652318
0.0036817639
0.0036981175
0.0037142954
0.0037302993
0.0037461309
0.003761792
0.0037772843
0.0037926096
0.0038077696
0.0038227659
0.0038376002
0.0038522742
0.0038667893
0.0038811472
0.0038953474
0.0039093912
0.0039232803
0.0039370166
0.0039506018
0.003964038
0.003977327
0.0039904709
0.0040034717
0.0040163315
0.0040290522
0.0040416359
0.0040540846
0.0040664004
0.0040785852
0.004090641
0.0041025698
0.0041143735
0.0041260541
0.0041376133
0.0041490532
0.0041603755
0.0041715821
0.0041826747
0.004193655
0.0042045249
0.004215286
0.0042259401
0.0042364886
0.0042469333
0.0042572758
0.0042675176
0.0042776602
0.0042877052
0.0042976539
0.004307508
0.0043172687
0.0043269375
0.0043365158
0.0043460048
0.0043554059
0.0043647205
0.0043739496
0.0043830947
0.0043921568
0.0044011372
0.0044100371
0.0044188575
0.0044275996
0.0044362645
0.0044448532
0.0044533669
0.0044618065
0.004470173
0.0044784674
0.0044866907
0.0044948438
0.0045029277
0.0045109432
0.0045188913
0.0045267728
0.0045345885
0.0045423393
0.0045500261
0.0045576495
0.0045652104
0.0045727096
0.0045801479
0.0045875258
0.0045948443
0.0046021039
0.0046093054
0.0046164495
0.0046235368
0.004630568
0.0046375437
0.0046444646
0.0046513312
0.0046581442
0.0046649042
0.0046716117
0.0046782674
0.0046848718
0.0046914254
0.0046979288
0.0047043825
0.0047107871
0.004717143
0.0047234507
0.0047297108
0.0047359238
0.0047420901
0.0047482102
0.0047542845
0.0047603135
0.0047662977
0.0047722375
0.0047781332
0.0047839855
0.0047897946
0.004795561
0.0048012851
0.0048069673
0.0048126079
0.0048182075
0.0048237662
0.0048292846
0.004834763
0.0048402017
0.0048456012
0.0048509617
0.0048562837
0.0048615674
0.0048668132
0.0048720215
0.0048771925
0.0048823266
0.0048874241
0.0048924854
0.0048975107
0.0049025003
0.0049074546
0.0049123739
0.0049172583
0.0049221083
0.0049269241
0.0049317059
0.004936454
0.0049411685
0.0049458497
0.0049504968
0.004955113
0.004959679
0.0049642585
0.004968451
0.0049734811
0.0023522101
0.0024611425
0.002525291
0.0025700456
0.002610189
0.0026459422
0.0026784473
0.0027091016
0.0027386324
0.0027674937
0.0027960284
0.0028244668
0.0028529482
0.0028814863
0.0029100633
0.002938643
0.0029671829
0.0029956354
0.003023951
0.0030520812
0.003079982
0.0031076153
0.0031349485
0.0031619549
0.0031886126
0.0032149042
0.0032408166
0.0032663397
0.0032914667
0.0033161929
0.0033405161
0.0033644355
0.0033879518
0.0034110669
0.0034337826
0.0034561028
0.0034780251
0.0034995558
0.0035206988
0.0035414587
0.0035618406
0.0035818495
0.0036014908
0.0036207699
0.0036396924
0.0036582638
0.0036764899
0.0036943763
0.0037119288
0.0037291527
0.0037460538
0.0037626292
0.0037788832
0.0037948216
0.0038104505
0.003825776
0.0038408044
0.0038555417
0.0038699942
0.0038841679
0.0038980688
0.0039117027
0.0039250753
0.0039381923
0.0039510593
0.0039636816
0.0039760645
0.0039882129
0.0040001319
0.0040118261
0.0040233002
0.0040345588
0.0040456064
0.0040564472
0.0040670855
0.0040775253
0.0040877708
0.0040978257
0.004107694
0.0041173794
0.0041268854
0.0041362157
0.0041453736
0.0041543625
0.0041631857
0.0041718465
0.0041803478
0.0041886928
0.0041968845
0.0042049256
0.0042128191
0.0042205677
0.004228174
0.0042356407
0.0042429704
0.0042501656
0.0042572286
0.0042641619
0.0042709677
0.0042776484
0.0042842062
0.0042906432
0.0042969616
0.0043031634
0.0043092506
0.0043152252
0.0043210891
0.0043268443
0.0043324925
0.0043380356
0.0043434753
0.0043488133
0.0043540514
0.0043591912
0.0043642344
0.0043691824
0.0043740368
0.0043787992
0.0043834711
0.0043880538
0.0043925489
0.0043969577
0.0044012815
0.0044055218
0.0044096799
0.004413757
0.0044177543
0.0044216732
0.0044255148
0.0044292804
0.004432971
0.0044365879
0.0044401322
0.0044436049
0.0044470072
0.0044503401
0.0044536046
0.0044568019
0.0044599328
0.0044629983
0.0044659996
0.0044689374
0.0044718127
0.0044746265
0.0044773796
0.004480073
0.0044827075
0.0044852839
0.0044878032
0.004490266
0.0044926734
0.004495026
0.0044973246
0.00449957
0.0045017631
0.0045039044
0.0045059948
0.004508035
0.0045100257
0.0045119677
0.0045138615
0.0045157079
0.0045175075
0.0045192611
0.0045209693
0.0045226326
0.0045242518
0.0045258274
0.0045273601
0.0045288505
0.0045302991
0.0045317066
0.0045330735
0.0045344004
0.0045356878
0.0045369363
0.0045381465
0.0045393189
0.004540454
0.0045415523
0.0045426143
0.0045436406
0.0045446316
0.0045455879
0.0045465098
0.004547398
0.0045482529
0.0045490749
0.0045498645
0.0045506222
0.0045513484
0.0045520438
0.0045527087
0.0045533441
0.0045539508
0.0045545322
0.0045550885
0.0045556463
0.0045561587
0.00455666
0.0023479654
0.0024531426
0.0024770501
0.0024968536
0.0025240309
0.0025527413
0.0025823655
0.0026129678
0.002644202
0.0026758016
0.0027076071
0.002739492
0.002771336
0.0028030078
0.0028343842
0.0028653703
0.0028958807
0.002925842
0.0029551939
0.0029838876
0.0030118848
0.0030391561
0.0030656803
0.0030914426
0.0031164343
0.0031406509
0.0031640923
0.0031867614
0.0032086642
0.0032298086
0.0032502046
0.0032698638
0.003288799
0.0033070242
0.0033245549
0.0033414069
0.0033576068
0.0033731696
0.0033881126
0.0034024534
0.0034162097
0.0034293991
0.0034420392
0.003454147
0.0034657396
0.0034768335
0.0034874449
0.0034975897
0.0035072832
0.0035165404
0.0035253757
0.0035338043
0.0035418401
0.0035494961
0.0035567846
0.0035637177
0.0035703067
0.003576563
0.0035824971
0.0035881197
0.0035934409
0.0035984705
0.003603218
0.0036076926
0.0036119032
0.0036158586
0.0036195671
0.0036230366
0.003626275
0.0036292897
0.0036320879
0.0036346766
0.0036370625
0.003639252
0.0036412515
0.003643067
0.0036447043
0.0036461691
0.0036474669
0.0036486029
0.0036495823
0.00365041
0.0036510909
0.0036516295
0.0036520304
0.0036522978
0.0036524361
0.0036524492
0.0036523412
0.0036521157
0.0036517767
0.0036513275
0.0036507717
0.0036501128
0.0036493538
0.0036484981
0.0036475486
0.0036465084
0.0036453804
0.0036441673
0.0036428719
0.0036414968
0.0036400446
0.0036385178
0.0036369187
0.0036352498
0.0036335133
0.0036317114
0.0036298463
0.00362792
0.0036259346
0.0036238921
0.0036217944
0.0036196433
0.0036174407
0.0036151882
0.0036128877
0.0036105408
0.0036081491
0.0036057142
0.0036032375
0.0036007207
0.0035981651
0.0035955721
0.0035929432
0.0035902796
0.0035875826
0.0035848535
0.0035820936
0.003579304
0.0035764859
0.0035736404
0.0035707686
0.0035678716
0.0035649504
0.003562006
0.0035590395
0.0035560518
0.0035530437
0.0035500163
0.0035469705
0.0035439069
0.0035408266
0.0035377304
0.0035346189
0.003531493
0.0035283535
0.0035252011
0.0035220364
0.0035188603
0.0035156732
0.003512476
0.0035092693
0.0035060536
0.0035028296
0.0034995979
0.003496359
0.0034931136
0.003489862
0.003486605
0.0034833429
0.0034800763
0.0034768056
0.0034735314
0.0034702541
0.0034669742
0.003463692
0.003460408
0.0034571226
0.0034538363
0.0034505493
0.0034472621
0.0034439751
0.0034406885
0.0034374028
0.0034341183
0.0034308352
0.003427554
0.0034242749
0.0034209982
0.0034177243
0.0034144533
0.0034111856
0.0034079215
0.0034046611
0.0034014048
0.0033981528
0.0033949053
0.0033916626
0.003388425
0.0033851926
0.0033819659
0.0033787451
0.0033755308
0.0033723234
0.0033691233
0.0033659329
0.0033627248
0.0033596613
0.0033557312
0.00226397
0.0023427103
0.0023076558
0.0022817217
0.0022700275
0.0022629834
0.0022601785
0.0022616531
0.0022666339
0.0022742985
0.0022839131
0.0022948347
0.00230652
0.0023185577
0.0023306415
0.0023425489
0.002354115
0.0023652236
0.0023757968
0.0023857849
0.0023951588
0.002403904
0.0024120174
0.0024195031
0.002426371
0.0024326349
0.0024383112
0.0024434184
0.0024479762
0.0024520052
0.0024555265
0.0024585616
0.0024611318
0.0024632587
0.0024649639
0.0024662674
0.0024671893
0.0024677497
0.0024679681
0.0024678628
0.0024674513
0.0024667505
0.002465777
0.0024645465
0.0024630742
0.0024613748
0.0024594623
0.00245735
0.0024550506
0.0024525763
0.0024499384
0.0024471483
0.0024442168
0.0024411542
0.00243797
0.002434673
0.0024312714
0.002427773
0.0024241852
0.002420515
0.0024167689
0.0024129532
0.0024090737
0.0024051361
0.0024011455
0.002397107
0.0023930252
0.0023889045
0.002384749
0.0023805626
0.002376349
0.0023721116
0.0023678535
0.0023635777
0.002359287
0.002354984
0.0023506713
0.0023463509
0.0023420251
0.0023376959
0.0023333651
0.0023290344
0.0023247055
0.0023203798
0.0023160587
0.0023117435
0.0023074354
0.0023031355
0.0022988448
0.0022945643
0.0022902948
0.0022860371
0.002281792
0.0022775601
0.002273342
0.0022691384
0.0022649498
0.0022607765
0.0022566191
0.0022524779
0.0022483533
0.0022442456
0.002240155
0.0022360819
0.0022320264
0.0022279888
0.0022239692
0.0022199678
0.0022159848
0.0022120201
0.0022080739
0.0022041464
0.0022002375
0.0021963473
0.0021924758
0.0021886231
0.0021847892
0.0021809741
0.0021771777
0.0021734001
0.0021696413
0.0021659011
0.0021621797
0.0021584768
0.0021547926
0.0021511269
0.0021474797
0.0021438509
0.0021402405
0.0021366483
0.0021330744
0.0021295187
0.0021259811
0.0021224615
0.0021189598
0.002115476
0.00211201
0.0021085617
0.0021051311
0.002101718
0.0020983224
0.0020949441
0.0020915832
0.0020882396
0.0020849131
0.0020816037
0.0020783112
0.0020750357
0.0020717771
0.0020685351
0.0020653099
0.0020621013
0.0020589092
0.0020557335
0.0020525743
0.0020494313
0.0020463045
0.0020431939
0.0020400993
0.0020370207
0.0020339581
0.0020309113
0.0020278802
0.0020248649
0.0020218652
0.002018881
0.0020159123
0.002012959
0.0020100211
0.0020070984
0.002004191
0.0020012986
0.0019984213
0.001995559
0.0019927117
0.0019898791
0.0019870614
0.0019842584
0.00198147
0.0019786962
0.0019759369
0.001973192
0.0019704615
0.0019677454
0.0019650434
0.0019623557
0.0019596821
0.0019570226
0.0019543771
0.0019517456
0.0019491282
0.0019465247
0.0019439354
0.0019413605
0.0019388003
0.001936253
0.0019337299
0.0019311368
0.0019288428
0.0019247493
0.0019562663
0.0018525702
0.0016152526
0.0014257785
0.0012827601
0.0011687497
0.0010809862
0.0010165523
0.0009709301
0.0009397867
0.00091939539
0.00090669992
0.00089931622
0.00089546931
0.00089392474
0.000893851
0.00089467481
0.0008960097
0.00089760291
0.00089929152
0.00090097296
0.00090258495
0.00090409144
0.00090547323
0.00090672178
0.00090783522
0.00090881573
0.00090966784
0.00091039741
0.00091101093
0.00091151516
0.00091191681
0.00091222251
0.00091243858
0.00091257174
0.00091262674
0.00091260619
0.0009125156
0.00091236152
0.00091214836
0.00091187982
0.00091155935
0.00091119015
0.00091077523
0.00091031744
0.00090981945
0.00090928379
0.00090871281
0.00090810873
0.00090747358
0.00090680902
0.00090611679
0.00090539895
0.00090465752
0.00090389419
0.00090311041
0.0009023075
0.00090148666
0.00090064904
0.00089979573
0.00089892781
0.00089804627
0.00089715209
0.00089624617
0.00089532938
0.00089440256
0.00089346653
0.00089252205
0.00089156984
0.00089061059
0.00088964495
0.00088867354
0.00088769692
0.00088671565
0.00088573023
0.00088474114
0.00088374885
0.00088275379
0.00088175635
0.00088075692
0.00087975587
0.00087875352
0.0008777502
0.00087674621
0.00087574183
0.00087473731
0.00087373291
0.00087272886
0.00087172537
0.00087072265
0.00086972088
0.00086872024
0.00086772089
0.00086672299
0.00086572667
0.00086473208
0.00086373932
0.00086274851
0.00086175977
0.00086077318
0.00085978883
0.00085880681
0.00085782718
0.00085685003
0.00085587541
0.00085490339
0.00085393401
0.00085296733
0.00085200338
0.00085104222
0.00085008388
0.00084912838
0.00084817577
0.00084722606
0.00084627928
0.00084533546
0.0008443946
0.00084345674
0.00084252188
0.00084159004
0.00084066123
0.00083973546
0.00083881274
0.00083789308
0.00083697648
0.00083606294
0.00083515248
0.0008342451
0.00083334079
0.00083243957
0.00083154143
0.00083064638
0.00082975442
0.00082886554
0.00082797974
0.00082709703
0.00082621741
0.00082534088
0.00082446742
0.00082359705
0.00082272977
0.00082186556
0.00082100443
0.00082014638
0.00081929141
0.00081843951
0.00081759069
0.00081674494
0.00081590226
0.00081506265
0.00081422611
0.00081339263
0.00081256222
0.00081173488
0.0008109106
0.00081008937
0.00080927121
0.00080845611
0.00080764407
0.00080683508
0.00080602915
0.00080522627
0.00080442644
0.00080362966
0.00080283593
0.00080204525
0.00080125762
0.00080047303
0.00079969149
0.00079891298
0.00079813752
0.00079736509
0.00079659569
0.00079582933
0.000795066
0.0007943057
0.00079354842
0.00079279417
0.00079204294
0.00079129473
0.00079054954
0.00078980736
0.00078906819
0.00078833203
0.00078759888
0.00078686875
0.00078614162
0.00078541751
0.00078469643
0.00078397839
0.00078326344
0.00078255165
0.00078184312
0.00078113793
0.00078043735
0.00077973458
0.00077906347
0.00077824736
0.00077792807
0.0007754776
)
;

boundaryField
{
    exteriorWall
    {
        type            calculated;
        value           uniform 6.122141e-05;
    }
    inlet
    {
        type            calculated;
        value           uniform 2.6258311e-05;
    }
    outlet
    {
        type            calculated;
        value           nonuniform List<scalar> 6(5.8697264e-05 5.8856333e-05 5.9047701e-05 5.9223408e-05 5.9399046e-05 5.9618672e-05);
    }
    walls
    {
        type            calculated;
        value           nonuniform List<scalar> 0();
    }
    frontAndBack
    {
        type            empty;
    }
    frontAndBack_pos
    {
        type            wedge;
    }
    frontAndBack_neg
    {
        type            wedge;
    }
}


// ************************************************************************* //
