/*--------------------------------*- C++ -*----------------------------------*\
  =========                 |
  \\      /  F ield         | OpenFOAM: The Open Source CFD Toolbox
   \\    /   O peration     | Website:  https://openfoam.org
    \\  /    A nd           | Version:  10
     \\/     M anipulation  |
\*---------------------------------------------------------------------------*/
FoamFile
{
    format      ascii;
    class       volScalarField;
    location    "5000/FLUID";
    object      Bi;
}
// * * * * * * * * * * * * * * * * * * * * * * * * * * * * * * * * * * * * * //

dimensions      [0 0 0 0 0 0 0];

internalField   nonuniform List<scalar> 
1200
(
1.6136561
1.6002983
1.584559
1.5711471
1.5602433
1.5517947
1.5457727
1.5419446
1.5400166
1.5397134
1.5407866
1.5430184
1.5462226
1.550247
1.5549643
1.5602901
1.5661325
1.5723857
1.5789588
1.5857711
1.5927517
1.5998395
1.6069814
1.6141325
1.6212541
1.6283139
1.6352847
1.6421441
1.6488738
1.6554591
1.6618885
1.6681532
1.6742468
1.680165
1.6859051
1.6914659
1.6968477
1.7020514
1.7070793
1.711934
1.716619
1.721138
1.7254951
1.7296947
1.7337414
1.7376398
1.7413947
1.7450111
1.7484936
1.7518471
1.7550763
1.7581862
1.7611814
1.7640664
1.7668453
1.7695224
1.7721016
1.7745866
1.7769811
1.7792887
1.7815128
1.7836565
1.785723
1.7877154
1.7896366
1.7914894
1.793276
1.7949989
1.7966605
1.7982629
1.7998083
1.8012988
1.8027365
1.8041232
1.8054608
1.8067512
1.807996
1.8091968
1.8103553
1.811473
1.8125513
1.8135915
1.8145951
1.8155632
1.8164971
1.8173979
1.8182667
1.8191047
1.8199127
1.8206919
1.821443
1.8221671
1.8228649
1.8235374
1.8241852
1.8248091
1.82541
1.8259883
1.8265449
1.8270804
1.8275953
1.8280903
1.828566
1.8290229
1.8294615
1.8298824
1.830286
1.8306729
1.8310434
1.831398
1.8317372
1.8320614
1.8323709
1.8326661
1.8329475
1.8332153
1.83347
1.8337118
1.8339411
1.8341583
1.8343635
1.8345571
1.8347395
1.8349108
1.8350714
1.8352215
1.8353614
1.8354912
1.8356114
1.835722
1.8358234
1.8359157
1.8359991
1.836074
1.8361403
1.8361985
1.8362486
1.8362909
1.8363255
1.8363527
1.8363725
1.8363851
1.8363908
1.8363897
1.8363819
1.8363676
1.8363469
1.8363201
1.8362871
1.8362482
1.8362035
1.8361532
1.8360973
1.836036
1.8359694
1.8358977
1.8358209
1.8357391
1.8356526
1.8355613
1.8354654
1.835365
1.8352602
1.8351511
1.8350379
1.8349205
1.834799
1.8346737
1.8345445
1.8344116
1.8342751
1.8341349
1.8339913
1.8338442
1.8336938
1.8335402
1.8333834
1.8332234
1.8330605
1.8328945
1.8327257
1.832554
1.8323796
1.8322025
1.8320227
1.8318404
1.8316556
1.8314683
1.8312786
1.8310867
1.8308924
1.830696
1.8304976
1.8302972
1.8300952
1.8298913
1.8296889
1.8294764
1.8293071
1.8289312
1.6123349
1.5986044
1.5883138
1.5831496
1.5813364
1.5821924
1.5851924
1.5897633
1.5954436
1.601883
1.6088104
1.6160197
1.6233584
1.6307546
1.6381057
1.6453068
1.6522969
1.6590495
1.6655506
1.6717964
1.6777894
1.6835361
1.6890452
1.6943268
1.6993915
1.7042498
1.7089121
1.7133885
1.7176884
1.7218206
1.7257936
1.7296151
1.7332925
1.7368325
1.7402415
1.7435256
1.7466905
1.7497417
1.7526841
1.7555222
1.7582602
1.7609022
1.763452
1.7659133
1.7682896
1.7705842
1.7728003
1.774941
1.7770091
1.7790074
1.7809386
1.7828056
1.7846101
1.7863542
1.7880398
1.7896687
1.7912429
1.7927643
1.7942349
1.7956564
1.7970307
1.7983593
1.7996441
1.8008865
1.8020881
1.8032505
1.8043752
1.8054637
1.8065172
1.807537
1.8085243
1.8094802
1.8104058
1.811302
1.8121699
1.8130103
1.8138241
1.8146122
1.8153753
1.8161143
1.8168299
1.8175228
1.8181936
1.8188432
1.8194719
1.8200806
1.8206698
1.82124
1.8217918
1.8223257
1.8228423
1.8233419
1.8238252
1.8242925
1.8247443
1.825181
1.825603
1.8260107
1.8264046
1.8267849
1.827152
1.8275064
1.8278482
1.8281779
1.8284958
1.8288021
1.8290972
1.8293813
1.8296547
1.8299178
1.8301707
1.8304138
1.8306472
1.8308712
1.8310861
1.831292
1.8314892
1.8316779
1.8318584
1.8320307
1.8321952
1.8323519
1.8325012
1.8326431
1.8327779
1.8329057
1.8330267
1.8331411
1.833249
1.8333505
1.8334459
1.8335353
1.8336187
1.8336964
1.8337686
1.8338352
1.8338965
1.8339526
1.8340036
1.8340497
1.8340909
1.8341273
1.8341592
1.8341865
1.8342094
1.8342281
1.8342425
1.8342529
1.8342592
1.8342617
1.8342604
1.8342553
1.8342467
1.8342345
1.8342189
1.8341998
1.8341776
1.8341521
1.8341235
1.8340918
1.8340572
1.8340197
1.8339793
1.8339362
1.8338904
1.833842
1.8337911
1.8337376
1.8336817
1.8336235
1.833563
1.8335002
1.8334352
1.8333681
1.8332989
1.8332277
1.8331545
1.8330794
1.8330024
1.8329236
1.8328431
1.8327608
1.8326768
1.8325912
1.8325041
1.8324154
1.8323251
1.8322335
1.8321404
1.8320459
1.8319502
1.8318531
1.8317548
1.8316553
1.8315547
1.8314528
1.8313512
1.8312411
1.8311572
1.8309152
1.6163829
1.6107088
1.6178676
1.6303829
1.6438772
1.6574679
1.6705318
1.6826567
1.6937056
1.7036691
1.7125912
1.7205448
1.7276131
1.733878
1.7394242
1.7443533
1.748751
1.752692
1.7562408
1.7594529
1.7623761
1.7650508
1.7675117
1.7697884
1.771906
1.7738861
1.7757469
1.7775042
1.7791711
1.7807592
1.782278
1.7837358
1.7851397
1.7864958
1.7878092
1.7890845
1.7903284
1.7915425
1.7927292
1.7938906
1.7950287
1.7961453
1.7972418
1.7983198
1.7993803
1.8004244
1.8014529
1.8024667
1.8034665
1.8044527
1.8054259
1.8063866
1.8073357
1.808274
1.8092021
1.8101204
1.8110289
1.811928
1.8128177
1.8136981
1.8145693
1.8154313
1.8162843
1.8171282
1.817963
1.8187889
1.8196057
1.8204137
1.8212129
1.8220034
1.8227853
1.8235586
1.8243235
1.8250801
1.8258284
1.8265686
1.8273007
1.8280249
1.8287413
1.8294499
1.8301508
1.8308442
1.8315301
1.8322087
1.8328801
1.8335443
1.8342015
1.8348517
1.8354952
1.8361319
1.836762
1.8373856
1.8380028
1.8386137
1.8392184
1.8398171
1.8404097
1.8409964
1.8415774
1.8421526
1.8427222
1.8432864
1.8438451
1.8443986
1.8449468
1.8454899
1.846028
1.8465611
1.8470894
1.8476129
1.8481317
1.8486459
1.8491556
1.8496609
1.8501618
1.8506584
1.8511508
1.8516392
1.8521234
1.8526037
1.8530801
1.8535526
1.8540214
1.8544865
1.854948
1.8554059
1.8558603
1.8563112
1.8567588
1.8572031
1.8576441
1.8580819
1.8585166
1.8589482
1.8593768
1.8598024
1.8602251
1.8606449
1.8610619
1.8614761
1.8618876
1.8622964
1.8627026
1.8631062
1.8635073
1.8639059
1.864302
1.8646958
1.8650871
1.8654762
1.8658629
1.8662474
1.8666297
1.8670099
1.8673879
1.8677637
1.8681376
1.8685094
1.8688792
1.869247
1.8696129
1.8699769
1.870339
1.8706993
1.8710577
1.8714144
1.8717694
1.8721226
1.8724741
1.8728239
1.8731721
1.8735186
1.8738636
1.874207
1.8745488
1.8748891
1.8752279
1.8755652
1.875901
1.8762354
1.8765684
1.8769
1.8772302
1.877559
1.8778865
1.8782127
1.8785376
1.8788611
1.8791834
1.8795045
1.8798243
1.8801428
1.8804601
1.8807762
1.8810909
1.8814038
1.8817147
1.8820184
1.8823117
1.8825438
1.6409381
1.656185
1.686919
1.7149411
1.7373593
1.7556641
1.7705268
1.7824966
1.7921455
1.7999448
1.8062621
1.8113879
1.8155504
1.8189011
1.8216147
1.8238306
1.8256576
1.8271821
1.8284735
1.8295876
1.8305697
1.8314563
1.8322771
1.833056
1.8338126
1.8345623
1.8353179
1.8360891
1.8368839
1.8377084
1.8385671
1.8394636
1.8404001
1.8413782
1.8423986
1.8434613
1.8445621
1.8457023
1.8468814
1.8480987
1.8493528
1.8506423
1.8519656
1.853321
1.8547066
1.8561209
1.857562
1.8590282
1.8605177
1.8620289
1.86356
1.8651091
1.8666745
1.8682548
1.8698489
1.8714556
1.8730739
1.8747027
1.8763409
1.8779877
1.879642
1.881303
1.8829697
1.8846415
1.8863174
1.8879967
1.8896787
1.8913627
1.8930481
1.8947344
1.896421
1.8981074
1.8997931
1.9014778
1.9031609
1.9048423
1.9065214
1.9081979
1.9098716
1.9115421
1.9132092
1.9148726
1.9165322
1.9181876
1.9198386
1.9214852
1.923127
1.924764
1.926396
1.9280229
1.9296445
1.9312607
1.9328713
1.9344764
1.9360758
1.9376694
1.9392571
1.9408389
1.9424147
1.9439845
1.9455481
1.9471056
1.9486568
1.9502018
1.9517406
1.953273
1.954799
1.9563187
1.9578321
1.959339
1.9608394
1.9623335
1.963821
1.9653022
1.9667768
1.968245
1.9697067
1.971162
1.9726107
1.974053
1.9754888
1.9769182
1.9783411
1.9797575
1.9811675
1.982571
1.9839682
1.9853589
1.9867432
1.9881211
1.9894926
1.9908578
1.9922166
1.9935691
1.9949153
1.9962552
1.9975887
1.998916
2.0002371
2.0015519
2.0028605
2.0041629
2.0054592
2.0067492
2.0080332
2.009311
2.0105827
2.0118483
2.0131079
2.0143615
2.015609
2.0168505
2.0180861
2.0193157
2.0205394
2.0217571
2.022969
2.024175
2.0253752
2.0265696
2.0277581
2.0289409
2.030118
2.0312893
2.0324549
2.0336148
2.034769
2.0359177
2.0370607
2.0381981
2.0393299
2.0404562
2.041577
2.0426923
2.0438021
2.0449065
2.0460054
2.0470989
2.0481871
2.0492698
2.0503473
2.0514194
2.0524863
2.0535478
2.0546042
2.0556553
2.0567012
2.057742
2.0587775
2.059808
2.0608333
2.0618535
2.0628686
2.0638785
2.0648832
2.0658826
2.066876
2.0678665
2.068814
2.0698631
1.6999685
1.739498
1.7924765
1.8346519
1.8667522
1.8926195
1.913506
1.9302518
1.9437079
1.9545929
1.9634879
1.9708586
1.9770714
1.9823882
1.9870251
1.9911537
1.9949078
1.9983892
2.0016753
2.0048248
2.0078828
2.0108834
2.0138529
2.0168116
2.0197748
2.0227542
2.0257586
2.0287944
2.0318661
2.0349769
2.0381286
2.0413219
2.044557
2.0478332
2.0511491
2.0545033
2.0578925
2.0613151
2.064769
2.0682525
2.0717634
2.0752995
2.0788583
2.0824373
2.0860343
2.0896466
2.0932721
2.0969082
2.1005527
2.1042036
2.1078586
2.1115155
2.115172
2.1188264
2.1224768
2.1261218
2.1297601
2.1333902
2.137011
2.1406213
2.1442199
2.1478059
2.1513782
2.1549358
2.158478
2.1620039
2.1655127
2.1690037
2.1724763
2.1759299
2.1793641
2.1827783
2.186172
2.1895451
2.1928971
2.1962276
2.1995366
2.2028237
2.2060888
2.2093316
2.2125522
2.2157503
2.2189259
2.2220789
2.2252093
2.2283171
2.2314024
2.234465
2.2375051
2.2405227
2.2435179
2.2464908
2.2494415
2.25237
2.2552765
2.2581611
2.261024
2.2638653
2.2666851
2.2694837
2.272261
2.2750175
2.2777531
2.2804681
2.2831626
2.2858369
2.2884911
2.2911254
2.2937401
2.2963351
2.2989109
2.3014675
2.3040052
2.3065241
2.3090245
2.3115065
2.3139703
2.3164161
2.3188441
2.3212545
2.3236475
2.3260232
2.3283819
2.3307237
2.3330488
2.3353574
2.3376496
2.3399257
2.3421858
2.34443
2.3466586
2.3488718
2.3510696
2.3532522
2.3554199
2.3575727
2.3597108
2.3618344
2.3639436
2.3660386
2.3681195
2.3701865
2.3722397
2.3742792
2.3763053
2.3783179
2.3803173
2.3823036
2.3842769
2.3862374
2.3881851
2.3901202
2.3920429
2.3939532
2.3958512
2.3977371
2.399611
2.401473
2.4033233
2.4051618
2.4069887
2.4088042
2.4106084
2.4124012
2.4141829
2.4159536
2.4177133
2.4194621
2.4212001
2.4229275
2.4246442
2.4263505
2.4280463
2.4297319
2.4314072
2.4330723
2.4347274
2.4363725
2.4380077
2.4396331
2.4412487
2.4428546
2.444451
2.4460379
2.4476153
2.4491833
2.4507421
2.4522916
2.453832
2.4553632
2.4568854
2.4583985
2.4599026
2.4613976
2.4628834
2.4643606
2.4658242
2.4673109
2.4686579
2.470678
1.8353678
1.9396341
2.0801078
2.208897
2.3218476
2.423569
2.5117984
2.5845435
2.6421582
2.6863201
2.7193588
2.7437589
2.7617832
2.7752719
2.7856037
2.7937625
2.8004538
2.8061703
2.8112471
2.8159105
2.8203122
2.824553
2.8286994
2.8327954
2.8368696
2.8409406
2.8450202
2.8491156
2.8532307
2.8573676
2.8615267
2.8657073
2.8699081
2.8741272
2.8783617
2.8826099
2.8868709
2.8911418
2.8954186
2.8996992
2.9039817
2.9082643
2.9125452
2.9168224
2.9210942
2.9253586
2.9296139
2.9338584
2.9380906
2.9423088
2.9465121
2.9506988
2.9548673
2.9590158
2.9631432
2.9672487
2.9713314
2.9753907
2.979426
2.9834366
2.9874221
2.9913818
2.9953152
2.9992219
3.0031014
3.0069534
3.0107775
3.0145732
3.0183404
3.0220788
3.0257882
3.0294683
3.0331192
3.0367408
3.0403328
3.0438955
3.0474286
3.0509322
3.0544065
3.0578514
3.061267
3.0646534
3.0680108
3.0713392
3.0746389
3.0779099
3.0811525
3.0843668
3.0875531
3.0907115
3.0938422
3.0969455
3.1000216
3.1030708
3.1060932
3.1090892
3.1120589
3.1150027
3.1179209
3.1208135
3.123681
3.1265237
3.1293417
3.1321353
3.1349049
3.1376506
3.1403728
3.1430718
3.1457477
3.1484009
3.1510317
3.1536403
3.156227
3.158792
3.1613356
3.1638581
3.1663597
3.1688408
3.1713014
3.1737419
3.1761626
3.1785636
3.1809453
3.1833078
3.1856514
3.1879764
3.1902829
3.1925711
3.1948414
3.1970939
3.1993289
3.2015465
3.203747
3.2059305
3.2080973
3.2102476
3.2123815
3.2144994
3.2166012
3.2186873
3.2207579
3.222813
3.2248529
3.2268778
3.2288878
3.2308831
3.2328638
3.2348302
3.2367824
3.2387205
3.2406446
3.2425551
3.2444519
3.2463353
3.2482053
3.2500622
3.251906
3.2537369
3.2555551
3.2573606
3.2591536
3.2609343
3.2627026
3.2644589
3.2662031
3.2679355
3.269656
3.2713649
3.2730623
3.2747482
3.2764228
3.2780861
3.2797384
3.2813796
3.2830099
3.2846294
3.2862382
3.2878364
3.2894241
3.2910014
3.2925683
3.294125
3.2956715
3.297208
3.2987345
3.3002511
3.3017579
3.303255
3.3047424
3.3062202
3.3076883
3.3091469
3.3105957
3.3120348
3.3134625
3.3148879
3.3162652
3.3178294
3.3187047
3.3223763
)
;

boundaryField
{
    exteriorWall
    {
        type            calculated;
        value           uniform 3.7938631;
    }
    inlet
    {
        type            calculated;
        value           nonuniform List<scalar> 6(1.6183362 1.6183326 1.6183257 1.6183186 1.6183133 1.6183099);
    }
    outlet
    {
        type            calculated;
        value           nonuniform List<scalar> 6(1.8289321 1.830916 1.8825444 2.0698638 2.4706788 3.3223771);
    }
    walls
    {
        type            calculated;
        value           nonuniform List<scalar> 0();
    }
    frontAndBack
    {
        type            empty;
    }
    frontAndBack_pos
    {
        type            wedge;
    }
    frontAndBack_neg
    {
        type            wedge;
    }
}


// ************************************************************************* //
