/*--------------------------------*- C++ -*----------------------------------*\
  =========                 |
  \\      /  F ield         | OpenFOAM: The Open Source CFD Toolbox
   \\    /   O peration     | Website:  https://openfoam.org
    \\  /    A nd           | Version:  10
     \\/     M anipulation  |
\*---------------------------------------------------------------------------*/
FoamFile
{
    format      ascii;
    class       volScalarField;
    location    "5000/FLUID";
    object      kappaEff;
}
// * * * * * * * * * * * * * * * * * * * * * * * * * * * * * * * * * * * * * //

dimensions      [1 1 -3 -1 0 0 0];

internalField   nonuniform List<scalar> 
1200
(
1.9656656
2.0246522
2.0998393
2.1718725
2.2390786
2.3005852
2.3553689
2.4035253
2.445672
2.4825368
2.5148704
2.5433845
2.5687171
2.5914089
2.6119151
2.6306183
2.6478609
2.6639245
2.6790347
2.693389
2.7071544
2.7204686
2.733445
2.7461754
2.7587339
2.7711792
2.7835571
2.7959026
2.8082422
2.8205945
2.8329725
2.8453842
2.8578336
2.8703217
2.882847
2.8954064
2.9079958
2.9206096
2.9332415
2.9458846
2.9585319
2.9711763
2.9838111
2.9964293
3.0090245
3.0215904
3.0341211
3.0466109
3.0590545
3.0714469
3.0837835
3.0960599
3.1082721
3.1204168
3.1324907
3.144491
3.1564153
3.1682614
3.1800275
3.191712
3.2033133
3.2148305
3.2262627
3.2376091
3.2488723
3.2600523
3.2711486
3.2821611
3.2930896
3.3039341
3.3146947
3.3253714
3.3359643
3.3464737
3.3568999
3.3672432
3.3775039
3.3876826
3.3977797
3.4077958
3.4177315
3.4275874
3.4373642
3.4470625
3.4566832
3.4662269
3.4756945
3.4850868
3.4944045
3.5036485
3.5128197
3.5219188
3.5309468
3.5399046
3.5487929
3.5576128
3.5663649
3.5750503
3.5836698
3.5922243
3.6007146
3.6091416
3.6175061
3.625809
3.6340512
3.6422334
3.6503565
3.6584213
3.6664286
3.6743791
3.6822738
3.6901132
3.6978983
3.7056297
3.7133082
3.7209345
3.7285093
3.7360333
3.7435073
3.7509318
3.7583076
3.7656353
3.7729155
3.7801489
3.7873361
3.7944778
3.8015744
3.8086266
3.815635
3.8226001
3.8295225
3.8364027
3.8432412
3.8500386
3.8567954
3.8635121
3.8701892
3.8768271
3.8834264
3.8899874
3.8965107
3.9029967
3.9094458
3.9158585
3.9222352
3.9285762
3.934882
3.9411531
3.9473896
3.9535922
3.9597611
3.9658966
3.9719992
3.9780693
3.984107
3.9901129
3.9960872
4.0020302
4.0079423
4.0138238
4.0196749
4.0254961
4.0312876
4.0370496
4.0427825
4.0484866
4.054162
4.0598092
4.0654284
4.0710197
4.0765836
4.0821202
4.0876298
4.0931126
4.0985689
4.1039989
4.1094029
4.114781
4.1201335
4.1254607
4.1307627
4.1360397
4.141292
4.1465197
4.1517232
4.1569024
4.1620578
4.1671894
4.1722973
4.1773818
4.182443
4.1874807
4.1924948
4.1974851
4.2024492
4.2073892
4.2122767
4.2171852
4.2216266
4.2271213
1.9791627
2.0550711
2.1289961
2.1907705
2.2449689
2.291985
2.3321832
2.3667797
2.3969479
2.4236717
2.4477868
2.4699686
2.4907573
2.5105973
2.5298408
2.5486976
2.5672963
2.5857314
2.6040651
2.6223301
2.640541
2.6587009
2.6768055
2.6948466
2.7128135
2.730695
2.7484797
2.7661567
2.7837161
2.801149
2.8184473
2.8356042
2.8526138
2.8694711
2.8861718
2.9027128
2.919091
2.9353042
2.9513506
2.9672293
2.9829399
2.9984822
3.0138564
3.0290628
3.0441019
3.0589747
3.0736819
3.0882248
3.1026046
3.1168231
3.130882
3.1447891
3.1585467
3.1721563
3.1856193
3.1989372
3.2121115
3.2251438
3.2380355
3.2507879
3.2634025
3.2758807
3.2882239
3.3004333
3.3125085
3.3244507
3.3362613
3.347942
3.3594941
3.3709195
3.3822198
3.3933966
3.4044517
3.4153868
3.4262036
3.4369039
3.4474895
3.4579619
3.468323
3.4785744
3.4887177
3.4987547
3.5086869
3.518516
3.5282435
3.537871
3.5474001
3.5568323
3.566169
3.5754118
3.5845621
3.5936213
3.6025908
3.611472
3.6202663
3.6289749
3.6375992
3.6461405
3.6545999
3.6629788
3.6712784
3.6794997
3.6876441
3.6957126
3.7037064
3.7116264
3.719474
3.7272499
3.7349554
3.7425914
3.7501589
3.7576588
3.7650921
3.7724598
3.7797628
3.7870018
3.7941779
3.8012919
3.8083445
3.8153367
3.8222692
3.8291428
3.8359583
3.8427165
3.849418
3.8560636
3.862654
3.86919
3.8756721
3.882101
3.8884775
3.8948021
3.9010755
3.9072983
3.913471
3.9195944
3.9256689
3.9316951
3.9376736
3.943605
3.9494897
3.9553283
3.9611213
3.9668692
3.9725725
3.9782318
3.9838474
3.9894198
3.9949495
4.000437
4.0058827
4.0112871
4.0166505
4.0219734
4.0272562
4.0324993
4.0377031
4.042868
4.0479944
4.0530827
4.0581332
4.0631463
4.0681224
4.0730618
4.0779649
4.082832
4.0876635
4.0924597
4.0972209
4.1019475
4.1066397
4.1112979
4.1159224
4.1205135
4.1250715
4.1295967
4.1340894
4.1385499
4.1429784
4.1473753
4.1517407
4.1560751
4.1603787
4.1646516
4.1688943
4.1731069
4.1772897
4.1814429
4.1855668
4.1896616
4.1937276
4.1977648
4.2017735
4.2057539
4.2097053
4.2136304
4.2175129
4.2214068
4.2249717
4.2292489
2.0001553
2.0927889
2.1473431
2.185407
2.2195505
2.2499607
2.2776088
2.3036827
2.3288007
2.353349
2.3776191
2.401807
2.4260311
2.4503029
2.4746077
2.4989143
2.5231869
2.547385
2.5714665
2.5953901
2.6191185
2.6426192
2.6658647
2.6888321
2.7115028
2.7338621
2.7558989
2.7776045
2.7989731
2.8200009
2.8406859
2.8610274
2.881026
2.9006834
2.9200011
2.9389824
2.9576252
2.975935
2.9939151
3.0115693
3.0289019
3.0459174
3.0626202
3.079015
3.0951064
3.1108993
3.1263984
3.1416086
3.1565349
3.1711817
3.1855539
3.1996491
3.213471
3.2270245
3.2403147
3.2533469
3.2661264
3.2786584
3.2909481
3.3030007
3.3148213
3.3264149
3.3377862
3.3489401
3.3598814
3.3706147
3.3811443
3.3914745
3.4016095
3.4115534
3.4213102
3.4308837
3.4402776
3.4494958
3.4585417
3.4674189
3.4761307
3.4846806
3.4930717
3.5013072
3.5093902
3.5173237
3.5251107
3.532754
3.5402564
3.5476206
3.5548492
3.5619449
3.5689101
3.5757474
3.5824591
3.5890476
3.5955152
3.601864
3.6080963
3.6142141
3.6202196
3.6261148
3.6319016
3.6375821
3.6431579
3.6486311
3.6540034
3.6592765
3.6644522
3.6695322
3.6745181
3.6794114
3.6842138
3.6889269
3.693552
3.6980907
3.7025444
3.7069145
3.7112023
3.7154094
3.7195368
3.723586
3.7275582
3.7314546
3.7352765
3.739025
3.7427013
3.7463065
3.7498418
3.7533082
3.7567069
3.7600388
3.763305
3.7665066
3.7696445
3.7727196
3.775733
3.7786856
3.7815782
3.7844119
3.7871874
3.7899057
3.7925677
3.795174
3.7977257
3.8002234
3.802668
3.8050603
3.8074009
3.8096908
3.8119306
3.8141211
3.8162629
3.8183568
3.8204035
3.8224036
3.8243579
3.8262669
3.8281313
3.8299518
3.831729
3.8334635
3.835156
3.8368069
3.8384169
3.8399867
3.8415166
3.8430074
3.8444596
3.8458737
3.8472502
3.8485897
3.8498927
3.8511597
3.8523912
3.8535877
3.8547497
3.8558777
3.8569722
3.8580336
3.8590623
3.8600589
3.8610238
3.8619575
3.8628603
3.8637327
3.8645751
3.865388
3.8661717
3.8669267
3.8676533
3.868352
3.8690232
3.8696672
3.8702845
3.8708756
3.8714408
3.8719808
3.8724964
3.8729906
3.8734634
3.8739375
3.8743729
3.8747991
1.996553
2.086001
2.106343
2.1231943
2.1463144
2.1707368
2.1959352
2.2219641
2.2485297
2.2754053
2.3024554
2.3295726
2.3566546
2.38359
2.4102738
2.4366255
2.4625725
2.4880524
2.5130139
2.5374157
2.561225
2.5844169
2.6069734
2.628882
2.6501351
2.6707291
2.6906638
2.7099417
2.7285678
2.746549
2.7638938
2.7806119
2.7967143
2.8122128
2.8271208
2.8414515
2.8552278
2.8684621
2.8811693
2.8933645
2.9050626
2.9162785
2.9270272
2.9373234
2.9471813
2.9566152
2.9656387
2.9742654
2.9825083
2.9903801
2.9978932
3.0050604
3.0118935
3.0184036
3.0246013
3.0304966
3.0360994
3.0414191
3.0464649
3.0512458
3.0557703
3.0600469
3.0640836
3.0678882
3.0714683
3.0748314
3.0779844
3.0809343
3.0836876
3.0862507
3.0886297
3.0908305
3.0928588
3.0947202
3.0964199
3.0979632
3.0993549
3.1006
3.101703
3.1026684
3.1035007
3.104204
3.1047824
3.1052399
3.1055802
3.105807
3.105924
3.1059346
3.1058421
3.1056499
3.105361
3.1049784
3.1045053
3.1039443
3.1032984
3.1025701
3.1017622
3.1008771
3.0999173
3.0988852
3.0977831
3.0966132
3.0953777
3.0940788
3.0927185
3.0912988
3.0898216
3.0882888
3.0867023
3.0850637
3.0833749
3.0816376
3.0798532
3.0780235
3.07615
3.0742341
3.0722774
3.0702812
3.0682469
3.0661758
3.0640693
3.0619286
3.059755
3.0575496
3.0553136
3.0530481
3.0507543
3.0484332
3.0460858
3.0437132
3.0413164
3.0388963
3.0364538
3.0339899
3.0315054
3.0290013
3.0264783
3.0239372
3.021379
3.0188042
3.0162137
3.0136083
3.0109886
3.0083552
3.005709
3.0030506
3.0003805
2.9976995
2.995008
2.9923068
2.9895964
2.9868773
2.9841501
2.9814153
2.9786734
2.975925
2.9731705
2.9704104
2.9676451
2.9648751
2.9621009
2.9593228
2.9565413
2.9537568
2.9509697
2.9481802
2.945389
2.9425961
2.9398021
2.9370073
2.9342119
2.9314164
2.928621
2.925826
2.9230317
2.9202384
2.9174465
2.914656
2.9118674
2.9090808
2.9062966
2.9035149
2.9007359
2.89796
2.8951873
2.8924181
2.8896525
2.8868908
2.8841332
2.8813798
2.878631
2.8758869
2.8731479
2.8704144
2.8676867
2.8649653
2.8622521
2.859524
2.8569187
2.8535766
1.9251413
1.9921159
1.9623216
1.9402791
1.9303428
1.9243589
1.9219785
1.9232362
1.9274747
1.9339949
1.9421729
1.9514621
1.9614004
1.9716382
1.981915
1.9920417
2.001878
2.0113252
2.020317
2.0288112
2.036783
2.0442202
2.05112
2.057486
2.0633266
2.0686534
2.0734806
2.0778238
2.0816998
2.0851261
2.0881206
2.0907016
2.0928874
2.094696
2.0961461
2.0972544
2.0980383
2.0985148
2.0987004
2.0986108
2.0982607
2.0976646
2.0968366
2.09579
2.0945378
2.0930925
2.0914659
2.0896694
2.0877138
2.0856094
2.083366
2.080993
2.0784999
2.0758952
2.0731872
2.0703831
2.0674901
2.0645149
2.0614636
2.0583422
2.0551563
2.0519111
2.0486118
2.045263
2.0418691
2.0384345
2.0349631
2.0314586
2.0279245
2.0243642
2.0207807
2.0171769
2.0135555
2.0099191
2.0062701
2.0026106
1.9989428
1.9952685
1.9915896
1.9879078
1.9842246
1.9805416
1.97686
1.9731812
1.9695063
1.9658364
1.9621726
1.9585157
1.9548667
1.9512263
1.9475953
1.9439744
1.9403641
1.9367651
1.9331779
1.9296029
1.9260407
1.9224915
1.9189559
1.915434
1.9119263
1.9084329
1.9049541
1.9014901
1.8980412
1.8946075
1.891189
1.8877861
1.8843987
1.881027
1.877671
1.8743309
1.8710066
1.8676982
1.8644058
1.8611293
1.8578688
1.8546243
1.8513958
1.8481832
1.8449865
1.8418058
1.8386409
1.8354919
1.8323587
1.8292413
1.8261396
1.8230536
1.8199832
1.8169283
1.813889
1.8108651
1.8078566
1.8048634
1.8018855
1.7989228
1.7959753
1.7930428
1.7901253
1.7872227
1.784335
1.7814621
1.7786039
1.7757604
1.7729315
1.7701171
1.7673171
1.7645316
1.7617604
1.7590034
1.7562606
1.753532
1.7508173
1.7481167
1.74543
1.7427572
1.7400981
1.7374528
1.7348212
1.7322031
1.7295986
1.7270076
1.72443
1.7218657
1.7193147
1.716777
1.7142524
1.7117409
1.7092424
1.706757
1.7042845
1.7018248
1.6993779
1.6969438
1.6945224
1.6921136
1.6897174
1.6873337
1.6849624
1.6826036
1.6802571
1.6779228
1.6756008
1.673291
1.6709933
1.6687077
1.6664341
1.6641724
1.6619227
1.6596849
1.657459
1.655245
1.6530431
1.6508534
1.6486762
1.64651
1.6443644
1.6421592
1.6402084
1.6367274
1.6635037
1.5753429
1.3735482
1.2124325
1.0908183
0.99386982
0.91923988
0.86444816
0.82565309
0.79917013
0.7818303
0.77103472
0.76475605
0.76148494
0.76017164
0.76010906
0.76080971
0.76194495
0.76329984
0.76473584
0.76616574
0.76753656
0.76881766
0.7699927
0.77105443
0.77200126
0.77283504
0.77355962
0.77417999
0.77470168
0.77513041
0.7754719
0.7757318
0.77591548
0.77602864
0.77607533
0.77605777
0.77598066
0.77584954
0.77566818
0.77543972
0.7751671
0.77485303
0.77450009
0.77411068
0.77368709
0.77323146
0.77274579
0.77223198
0.77169174
0.77112649
0.7705377
0.76992714
0.76929651
0.76864726
0.76798062
0.76729771
0.76659955
0.76588712
0.76516136
0.76442316
0.76367338
0.76291285
0.76214234
0.76136259
0.76057431
0.75977819
0.75897488
0.75816501
0.75734915
0.75652786
0.75570166
0.75487103
0.75403644
0.75319833
0.7523571
0.75151315
0.75066684
0.74981851
0.74896849
0.74811709
0.74726459
0.74641126
0.74555737
0.74470314
0.7438488
0.74299456
0.74214062
0.74128715
0.74043434
0.73958235
0.73873131
0.73788137
0.73703266
0.73618531
0.73533941
0.73449509
0.73365242
0.73281151
0.73197243
0.73113526
0.73030007
0.72946692
0.72863587
0.72780698
0.72698029
0.72615586
0.72533372
0.72451391
0.72369647
0.72288142
0.7220688
0.72125863
0.72045094
0.71964573
0.71884304
0.71804288
0.71724526
0.7164502
0.7156577
0.71486779
0.71408046
0.71329572
0.71251358
0.71173405
0.71095713
0.71018283
0.70941114
0.70864207
0.70787562
0.7071118
0.7063506
0.70559203
0.70483608
0.70408276
0.70333207
0.702584
0.70183855
0.70109573
0.70035553
0.69961795
0.69888299
0.69815065
0.69742094
0.69669383
0.69596935
0.69524748
0.69452822
0.69381158
0.69309754
0.69238612
0.6916773
0.6909711
0.6902675
0.6895665
0.68886811
0.68817232
0.68747914
0.68678855
0.68610056
0.68541518
0.68473239
0.6840522
0.6833746
0.68269959
0.68202718
0.68135736
0.68069013
0.68002549
0.67936343
0.67870396
0.67804707
0.67739276
0.67674104
0.67609189
0.67544531
0.67480132
0.67415989
0.67352103
0.67288474
0.67225102
0.67161986
0.67099126
0.67036522
0.66974175
0.66912083
0.66850248
0.66788669
0.66727347
0.66666285
0.66605484
0.66544953
0.664847
0.66424729
0.66365152
0.66305388
0.66248317
0.66178915
0.6615176
0.6594338
)
;

boundaryField
{
    exteriorWall
    {
        type            calculated;
        value           uniform 0.25768328;
    }
    inlet
    {
        type            calculated;
        value           nonuniform List<scalar> 6(1.9451998 1.9452145 1.9452419 1.9452703 1.9452911 1.9453048);
    }
    outlet
    {
        type            calculated;
        value           nonuniform List<scalar> 6(4.2271145 4.2292427 3.8747945 2.8535735 1.6367258 0.65943331);
    }
    walls
    {
        type            calculated;
        value           nonuniform List<scalar> 0();
    }
    frontAndBack
    {
        type            empty;
    }
    frontAndBack_pos
    {
        type            wedge;
    }
    frontAndBack_neg
    {
        type            wedge;
    }
}


// ************************************************************************* //
