/*--------------------------------*- C++ -*----------------------------------*\
  =========                 |
  \\      /  F ield         | OpenFOAM: The Open Source CFD Toolbox
   \\    /   O peration     | Website:  https://openfoam.org
    \\  /    A nd           | Version:  10
     \\/     M anipulation  |
\*---------------------------------------------------------------------------*/
FoamFile
{
    format      ascii;
    class       volScalarField;
    location    "5000/FLUID";
    object      overallU;
}
// * * * * * * * * * * * * * * * * * * * * * * * * * * * * * * * * * * * * * //

dimensions      [1 0 -3 -1 0 0 0];

internalField   nonuniform List<scalar> 
1200
(
173.87788
178.09307
183.47377
188.67419
193.59116
198.17249
202.35237
206.13903
209.57391
212.7042
215.57752
218.23821
220.72534
223.07174
225.30454
227.44842
229.52366
231.54374
233.51878
235.45743
237.36674
239.25226
241.11832
242.96819
244.80432
246.62846
248.44179
250.24507
252.03867
253.82271
255.59709
257.36154
259.11571
260.85913
262.59133
264.31178
266.02003
267.71558
269.39795
271.06666
272.7213
274.36149
275.98688
277.59717
279.1921
280.77146
282.33505
283.88274
285.4144
286.92994
288.42931
289.9125
291.37952
292.8304
294.26517
295.68392
297.08673
298.4737
299.84494
301.2006
302.54081
303.86572
305.17552
306.47039
307.75081
309.01699
310.2691
311.5073
312.73177
313.94269
315.14024
316.32461
317.49596
318.65449
319.80037
320.9338
322.05494
323.16399
324.26112
325.34652
326.42036
327.48282
328.53408
329.57432
330.6037
331.6224
332.63059
333.62843
334.6161
335.59376
336.56157
337.51969
338.46827
339.40748
340.33746
341.25836
342.17034
343.07353
343.96809
344.85414
345.73184
346.60131
347.46269
348.3161
349.16169
349.99956
350.82986
351.65269
352.46818
353.27643
354.07758
354.87173
355.65898
356.43945
357.21324
357.98046
358.7412
359.49557
360.24366
360.98556
361.72138
362.45119
363.1751
363.89318
364.60553
365.31223
366.01335
366.70898
367.39921
368.0841
368.76373
369.43817
370.10751
370.7718
371.43112
372.08554
372.73512
373.37993
374.02003
374.65549
375.28636
375.91271
376.5346
377.15208
377.76522
378.37406
378.97865
379.57907
380.17535
380.76755
381.35571
381.93989
382.52014
383.09651
383.66903
384.23776
384.80273
385.36401
385.92162
386.47561
387.02602
387.5729
388.11628
388.6562
389.1927
389.72581
390.25559
390.78206
391.30525
391.82521
392.34197
392.85556
393.36602
393.87337
394.37766
394.87891
395.37716
395.87243
396.36476
396.85417
397.3407
397.82438
398.30522
398.78327
399.25854
399.73107
400.20087
400.66799
401.13243
401.59422
402.05337
402.50991
402.96381
403.41508
403.86353
404.30933
404.75023
405.19165
405.59426
406.06854
174.97511
180.63931
186.32033
191.30328
195.88349
200.05938
203.83013
207.25826
210.40796
213.33448
216.0862
218.70297
221.21766
223.66226
226.058
228.41335
230.73365
233.02445
235.28961
237.53135
239.75082
241.94854
244.12462
246.27889
248.41107
250.52081
252.60774
254.67152
256.71186
258.7285
260.72125
262.68997
264.63457
266.55502
268.45132
270.32354
272.17179
273.99618
275.79683
277.57394
279.32771
281.05838
282.76618
284.45137
286.11421
287.75498
289.37396
290.97145
292.54773
294.10315
295.63805
297.15334
298.64937
300.12635
301.58454
303.0242
304.4456
305.849
307.23467
308.60286
309.95383
311.28784
312.60511
313.90591
315.19029
316.45847
317.71073
318.94731
320.16846
321.37442
322.56546
323.7418
324.90369
326.05138
327.1851
328.30509
329.41157
330.50477
331.58492
332.65224
333.70694
334.74923
335.77933
336.79744
337.80376
338.79849
339.78182
340.75395
341.71506
342.66534
343.60496
344.5341
345.45293
346.36163
347.26036
348.14928
349.02855
349.89833
350.75877
351.61002
352.45223
353.28554
354.11009
354.92602
355.73346
356.53255
357.32341
358.10618
358.88097
359.64791
360.40711
361.1587
361.90278
362.63947
363.36888
364.0911
364.80626
365.51445
366.21576
366.91031
367.59818
368.27947
368.95427
369.62267
370.28476
370.94062
371.59035
372.23402
372.87172
373.50352
374.1295
374.74975
375.36433
375.97332
376.57679
377.17481
377.76746
378.35479
378.93688
379.51379
380.08559
380.65233
381.21409
381.77091
382.32287
382.87001
383.4124
383.9501
384.48315
385.01161
385.53554
386.05498
386.57
387.08063
387.58693
388.08895
388.58674
389.08034
389.5698
390.05516
390.53647
391.01378
391.48712
391.95654
392.42208
392.88379
393.3417
393.79585
394.24628
394.69304
395.13615
395.57566
396.01161
396.44402
396.87294
397.2984
397.72044
398.13908
398.55438
398.96634
399.37502
399.78044
400.18264
400.58164
400.97747
401.37017
401.75977
402.1463
402.52978
402.91024
403.28772
403.66222
404.03378
404.40242
404.76809
405.131
405.48985
405.84855
406.17933
406.55602
177.13025
184.89474
190.28262
194.66214
198.79954
202.63595
206.20251
209.56827
212.7747
215.85353
218.83289
221.73502
224.57618
227.36292
230.09967
232.79098
235.43982
238.04788
240.61601
243.14447
245.63329
248.08247
250.49201
252.86198
255.19254
257.48393
259.73648
261.95056
264.12665
266.26523
268.36684
270.43206
272.46147
274.45566
276.41518
278.34067
280.23249
282.09124
283.91736
285.71136
287.47376
289.20511
290.9059
292.57667
294.21791
295.83013
297.41383
298.9695
300.49762
301.99865
303.47304
304.92057
306.34166
307.73684
309.10659
310.45143
311.77184
313.06832
314.34134
315.59137
316.81886
318.02428
319.20807
320.37065
321.51246
322.63391
323.7354
324.81733
325.88008
326.92402
327.94953
328.95697
329.94668
330.91901
331.87429
332.81285
333.73501
334.64109
335.53138
336.40619
337.2658
338.11051
338.94059
339.75631
340.55794
341.34574
342.11996
342.88085
343.62865
344.3636
345.08593
345.79586
346.49363
347.17943
347.85349
348.51601
349.1672
349.80725
350.43635
351.05469
351.66246
352.25984
352.84701
353.42413
353.99138
354.54893
355.09693
355.63554
356.16493
356.68524
357.19662
357.69921
358.19317
358.67863
359.15572
359.62459
360.08536
360.53816
360.98312
361.42036
361.85
362.27217
362.68698
363.09454
363.49496
363.88836
364.27485
364.65453
365.0275
365.39386
365.75373
366.10718
366.45433
366.79526
367.13007
367.45885
367.78169
368.09867
368.40989
368.71542
369.01536
369.30978
369.59877
369.88239
370.16074
370.43388
370.7019
370.96486
371.22284
371.47592
371.72415
371.96761
372.20637
372.44049
372.67004
372.89509
373.11569
373.33192
373.54382
373.75147
373.95492
374.15424
374.34947
374.54068
374.72792
374.91125
375.09072
375.26638
375.4383
375.60651
375.77107
375.93204
376.08945
376.24337
376.39383
376.54089
376.68459
376.82497
376.9621
377.09599
377.22672
377.3543
377.4788
377.60025
377.71869
377.83416
377.94671
378.05637
378.16319
378.2672
378.36845
378.46698
378.56283
378.65607
378.74675
378.83511
378.92112
379.00635
379.08647
379.15785
178.61196
187.77229
191.93806
195.5927
199.41817
203.07557
206.56528
209.93134
213.18639
216.34178
219.40993
222.40046
225.31919
228.16536
230.94119
233.6488
236.28899
238.862
241.36799
243.80713
246.17969
248.48613
250.72702
252.9031
255.01524
257.06438
259.05159
260.97798
262.84472
264.65302
266.40414
268.09933
269.73988
271.32708
272.86228
274.34675
275.7823
277.17023
278.51194
279.80876
281.06201
282.27297
283.44288
284.57298
285.66445
286.71845
287.7361
288.71849
289.66669
290.58171
291.46455
292.31619
293.1376
293.92965
294.69323
295.42915
296.13822
296.82121
297.47888
298.11196
298.72115
299.30714
299.87059
300.41215
300.93244
301.43207
301.91162
302.37168
302.81278
303.23546
303.64025
304.02763
304.39809
304.75211
305.09014
305.41263
305.71999
306.01266
306.29102
306.55549
306.80642
307.04421
307.2692
307.48174
307.68218
307.87083
308.04803
308.21409
308.36929
308.51395
308.64834
308.77274
308.88742
308.99264
309.08866
309.17573
309.25409
309.32398
309.38561
309.43922
309.48503
309.52323
309.55405
309.57767
309.5943
309.60413
309.60733
309.60408
309.59458
309.57897
309.55744
309.53014
309.49724
309.45888
309.41521
309.36639
309.31255
309.25384
309.19039
309.12233
309.04979
308.9729
308.89178
308.80654
308.71732
308.62422
308.52735
308.42681
308.32273
308.21519
308.10431
307.99017
307.87287
307.75252
307.62919
307.50298
307.37398
307.24226
307.10792
306.97103
306.83167
306.68993
306.54587
306.39956
306.25109
306.10051
305.94791
305.79333
305.63686
305.47855
305.31847
305.15667
304.99322
304.82816
304.66157
304.49349
304.32398
304.15309
303.98087
303.80737
303.63264
303.45673
303.27968
303.10154
302.92235
302.74216
302.56101
302.37893
302.19598
302.01219
301.82759
301.64223
301.45614
301.26935
301.08191
300.89384
300.70518
300.51596
300.32621
300.13597
299.94525
299.7541
299.56253
299.37059
299.17828
298.98565
298.79272
298.59951
298.40605
298.21237
298.01848
297.82443
297.63025
297.43597
297.24163
297.04728
296.85304
296.65681
296.46936
296.21412
176.32388
185.24065
186.07284
186.76258
187.87884
188.9416
190.02188
191.19229
192.45085
193.77802
195.15005
196.54203
197.93041
199.29605
200.62575
201.91075
203.14484
204.32409
205.4464
206.51093
207.5178
208.46777
209.36206
210.20217
210.98979
211.72673
212.41485
213.05604
213.65218
214.20514
214.71676
215.18883
215.62312
216.02135
216.38521
216.71624
217.01591
217.28576
217.52728
217.74185
217.93081
218.09541
218.23687
218.35635
218.45496
218.53379
218.59384
218.6361
218.66151
218.67094
218.66524
218.64522
218.61168
218.56538
218.50703
218.4373
218.35682
218.26618
218.16596
218.05669
217.93888
217.81301
217.67956
217.53895
217.39161
217.23793
217.07829
216.91305
216.74255
216.5671
216.38702
216.20259
216.01408
215.82176
215.62586
215.42663
215.22428
215.01901
214.81103
214.60051
214.38764
214.17258
213.95549
213.73651
213.51579
213.29346
213.06964
212.84445
212.61801
212.39041
212.16177
211.93216
211.70169
211.47043
211.23847
211.00587
210.77272
210.53907
210.30499
210.07054
209.83577
209.60074
209.36549
209.13008
208.89455
208.65894
208.42329
208.18764
207.95203
207.71648
207.48103
207.24571
207.01054
206.77557
206.5408
206.30627
206.07199
205.838
205.6043
205.37093
205.13789
204.90521
204.6729
204.44098
204.20947
203.97837
203.74771
203.51749
203.28774
203.05845
202.82964
202.60133
202.37353
202.14623
201.91946
201.69323
201.46753
201.24239
201.0178
200.79379
200.57034
200.34748
200.12521
199.90353
199.68246
199.46199
199.24214
199.02291
198.80431
198.58634
198.369
198.15231
197.93627
197.72087
197.50614
197.29206
197.07866
196.86592
196.65385
196.44247
196.23176
196.02174
195.81241
195.60377
195.39583
195.18858
194.98203
194.77619
194.57106
194.36663
194.16292
193.95992
193.75764
193.55607
193.35523
193.15511
192.95571
192.75704
192.5591
192.36189
192.16541
191.96966
191.77464
191.58036
191.38682
191.19401
191.00194
190.81061
190.62003
190.43019
190.24111
190.05279
189.86524
189.67849
189.49257
189.30734
189.1237
188.93398
188.76735
188.45319
160.16152
157.08511
143.00995
130.87043
121.23012
113.19953
106.82183
102.05084
98.64922
96.342783
94.871283
94.007294
93.56602
93.40603
93.427823
93.564053
93.768123
94.008622
94.265099
94.524487
94.778688
95.022909
95.254506
95.472198
95.675561
95.864691
96.039993
96.202041
96.351495
96.489047
96.61539
96.731201
96.837133
96.9338
97.021842
97.101715
97.173661
97.238199
97.295938
97.347297
97.392628
97.432252
97.466466
97.495552
97.51977
97.539368
97.554577
97.565614
97.572684
97.575973
97.575635
97.571827
97.564738
97.554556
97.541439
97.525527
97.506949
97.485822
97.46226
97.436372
97.408261
97.378029
97.345774
97.311587
97.275556
97.237768
97.198306
97.157249
97.114675
97.070656
97.025262
96.97856
96.930613
96.881483
96.831226
96.779898
96.727553
96.67424
96.620008
96.564903
96.508969
96.452248
96.394779
96.336602
96.277752
96.218264
96.158172
96.097507
96.0363
95.974578
95.91237
95.849702
95.786598
95.723082
95.659176
95.594903
95.530283
95.465335
95.400078
95.33453
95.268707
95.202626
95.136302
95.069749
95.002982
94.936015
94.86886
94.801528
94.734033
94.666384
94.598594
94.530671
94.462626
94.394467
94.326205
94.257848
94.189404
94.12088
94.052285
93.983627
93.914911
93.846145
93.777336
93.70849
93.639614
93.570712
93.501791
93.432857
93.363916
93.294971
93.226029
93.157094
93.088172
93.019267
92.950383
92.881526
92.8127
92.743908
92.675155
92.606446
92.537784
92.469172
92.400616
92.332119
92.263684
92.195316
92.127017
92.058791
91.990641
91.922572
91.854586
91.786686
91.718876
91.651159
91.583538
91.516016
91.448595
91.38128
91.314072
91.246974
91.17999
91.113121
91.046371
90.979743
90.913238
90.846859
90.780609
90.71449
90.648504
90.582654
90.516942
90.45137
90.38594
90.320655
90.255516
90.190526
90.125686
90.060998
89.996464
89.932087
89.867868
89.803808
89.73991
89.676175
89.612605
89.549203
89.485969
89.422907
89.360019
89.297309
89.234783
89.172448
89.110318
89.048401
88.986821
88.924921
88.865975
88.792832
88.767554
88.534546
)
;

boundaryField
{
    exteriorWall
    {
        type            calculated;
        value           uniform 0;
    }
    inlet
    {
        type            calculated;
        value           uniform 0;
    }
    outlet
    {
        type            calculated;
        value           uniform 0;
    }
    walls
    {
        type            calculated;
        value           nonuniform List<scalar> 0();
    }
    frontAndBack
    {
        type            empty;
    }
    frontAndBack_pos
    {
        type            wedge;
    }
    frontAndBack_neg
    {
        type            wedge;
    }
}


// ************************************************************************* //
