/*--------------------------------*- C++ -*----------------------------------*\
  =========                 |
  \\      /  F ield         | OpenFOAM: The Open Source CFD Toolbox
   \\    /   O peration     | Website:  https://openfoam.org
    \\  /    A nd           | Version:  10
     \\/     M anipulation  |
\*---------------------------------------------------------------------------*/
FoamFile
{
    format      ascii;
    class       volScalarField;
    location    "5000/FLUID";
    object      p_rgh;
}
// * * * * * * * * * * * * * * * * * * * * * * * * * * * * * * * * * * * * * //

dimensions      [1 -1 -2 0 0 0 0];

internalField   nonuniform List<scalar> 
1200
(
101435.85
101435.15
101433.79
101432.37
101430.95
101429.51
101428.11
101426.77
101425.49
101424.26
101423.08
101421.94
101420.84
101419.77
101418.72
101417.69
101416.68
101415.68
101414.7
101413.72
101412.77
101411.82
101410.88
101409.96
101409.04
101408.14
101407.24
101406.36
101405.49
101404.62
101403.77
101402.92
101402.09
101401.26
101400.45
101399.64
101398.84
101398.04
101397.26
101396.48
101395.72
101394.96
101394.2
101393.46
101392.72
101391.99
101391.27
101390.55
101389.84
101389.14
101388.44
101387.75
101387.07
101386.39
101385.72
101385.05
101384.39
101383.74
101383.09
101382.45
101381.82
101381.18
101380.56
101379.94
101379.32
101378.71
101378.11
101377.51
101376.92
101376.33
101375.74
101375.16
101374.59
101374.01
101373.45
101372.89
101372.33
101371.78
101371.23
101370.68
101370.14
101369.61
101369.08
101368.55
101368.02
101367.5
101366.99
101366.48
101365.97
101365.46
101364.96
101364.47
101363.97
101363.48
101362.99
101362.51
101362.03
101361.56
101361.08
101360.61
101360.15
101359.68
101359.22
101358.76
101358.31
101357.86
101357.41
101356.97
101356.52
101356.09
101355.65
101355.22
101354.78
101354.36
101353.93
101353.51
101353.09
101352.67
101352.26
101351.84
101351.43
101351.03
101350.62
101350.22
101349.82
101349.42
101349.03
101348.64
101348.25
101347.86
101347.47
101347.09
101346.71
101346.33
101345.95
101345.58
101345.2
101344.83
101344.46
101344.1
101343.73
101343.37
101343.01
101342.65
101342.29
101341.94
101341.58
101341.23
101340.88
101340.54
101340.19
101339.85
101339.51
101339.16
101338.83
101338.49
101338.15
101337.82
101337.49
101337.16
101336.83
101336.5
101336.18
101335.85
101335.53
101335.21
101334.89
101334.57
101334.26
101333.94
101333.63
101333.32
101333.01
101332.7
101332.39
101332.09
101331.78
101331.48
101331.18
101330.88
101330.58
101330.28
101329.98
101329.69
101329.39
101329.1
101328.81
101328.52
101328.23
101327.94
101327.65
101327.37
101327.09
101326.8
101326.52
101326.24
101325.96
101325.69
101325.41
101325.17
101436.66
101435.44
101433.82
101432.33
101430.85
101429.38
101427.98
101426.64
101425.37
101424.15
101422.97
101421.84
101420.75
101419.68
101418.64
101417.61
101416.6
101415.61
101414.63
101413.67
101412.71
101411.77
101410.84
101409.92
101409.02
101408.12
101407.23
101406.35
101405.48
101404.62
101403.77
101402.92
101402.09
101401.27
101400.45
101399.64
101398.84
101398.05
101397.27
101396.49
101395.73
101394.97
101394.21
101393.47
101392.73
101392
101391.28
101390.56
101389.85
101389.15
101388.45
101387.76
101387.08
101386.4
101385.73
101385.06
101384.4
101383.75
101383.1
101382.46
101381.82
101381.19
101380.56
101379.94
101379.33
101378.72
101378.11
101377.51
101376.92
101376.33
101375.75
101375.16
101374.59
101374.02
101373.45
101372.89
101372.33
101371.78
101371.23
101370.69
101370.15
101369.61
101369.08
101368.55
101368.03
101367.51
101366.99
101366.48
101365.97
101365.47
101364.97
101364.47
101363.97
101363.48
101363
101362.51
101362.03
101361.56
101361.08
101360.61
101360.15
101359.68
101359.22
101358.77
101358.31
101357.86
101357.41
101356.97
101356.53
101356.09
101355.65
101355.22
101354.79
101354.36
101353.93
101353.51
101353.09
101352.67
101352.26
101351.85
101351.44
101351.03
101350.62
101350.22
101349.82
101349.42
101349.03
101348.64
101348.25
101347.86
101347.47
101347.09
101346.71
101346.33
101345.95
101345.58
101345.2
101344.83
101344.46
101344.1
101343.73
101343.37
101343.01
101342.65
101342.29
101341.94
101341.59
101341.23
101340.88
101340.54
101340.19
101339.85
101339.51
101339.17
101338.83
101338.49
101338.15
101337.82
101337.49
101337.16
101336.83
101336.5
101336.18
101335.85
101335.53
101335.21
101334.89
101334.57
101334.26
101333.94
101333.63
101333.32
101333.01
101332.7
101332.39
101332.09
101331.78
101331.48
101331.18
101330.88
101330.58
101330.28
101329.98
101329.69
101329.39
101329.1
101328.81
101328.52
101328.23
101327.94
101327.65
101327.37
101327.09
101326.8
101326.52
101326.24
101325.96
101325.68
101325.4
101325.16
101438.16
101435.72
101433.76
101432.17
101430.6
101429.09
101427.68
101426.36
101425.11
101423.92
101422.78
101421.69
101420.62
101419.58
101418.56
101417.55
101416.56
101415.58
101414.61
101413.66
101412.71
101411.78
101410.85
101409.94
101409.03
101408.13
101407.24
101406.37
101405.5
101404.64
101403.79
101402.94
101402.11
101401.28
101400.47
101399.66
101398.86
101398.07
101397.29
101396.51
101395.74
101394.98
101394.23
101393.48
101392.74
101392.01
101391.29
101390.57
101389.86
101389.16
101388.46
101387.77
101387.09
101386.41
101385.74
101385.07
101384.41
101383.76
101383.11
101382.47
101381.83
101381.2
101380.57
101379.95
101379.33
101378.72
101378.12
101377.52
101376.92
101376.33
101375.75
101375.17
101374.59
101374.02
101373.46
101372.89
101372.34
101371.78
101371.23
101370.69
101370.15
101369.61
101369.08
101368.55
101368.03
101367.51
101366.99
101366.48
101365.97
101365.47
101364.97
101364.47
101363.98
101363.48
101363
101362.51
101362.03
101361.56
101361.08
101360.61
101360.15
101359.68
101359.22
101358.77
101358.31
101357.86
101357.41
101356.97
101356.53
101356.09
101355.65
101355.22
101354.79
101354.36
101353.93
101353.51
101353.09
101352.67
101352.26
101351.85
101351.44
101351.03
101350.62
101350.22
101349.82
101349.42
101349.03
101348.64
101348.25
101347.86
101347.47
101347.09
101346.71
101346.33
101345.95
101345.58
101345.2
101344.83
101344.46
101344.1
101343.73
101343.37
101343.01
101342.65
101342.29
101341.94
101341.59
101341.23
101340.88
101340.54
101340.19
101339.85
101339.51
101339.17
101338.83
101338.49
101338.15
101337.82
101337.49
101337.16
101336.83
101336.5
101336.18
101335.85
101335.53
101335.21
101334.89
101334.57
101334.26
101333.94
101333.63
101333.32
101333.01
101332.7
101332.39
101332.09
101331.78
101331.48
101331.18
101330.88
101330.58
101330.28
101329.98
101329.69
101329.39
101329.1
101328.81
101328.52
101328.23
101327.94
101327.65
101327.37
101327.09
101326.8
101326.52
101326.24
101325.96
101325.68
101325.4
101325.13
101439.71
101435.58
101433.57
101432.02
101430.42
101428.93
101427.55
101426.25
101425.03
101423.86
101422.74
101421.65
101420.59
101419.56
101418.54
101417.54
101416.55
101415.57
101414.61
101413.65
101412.71
101411.77
101410.85
101409.93
101409.03
101408.13
101407.24
101406.37
101405.5
101404.64
101403.79
101402.94
101402.11
101401.29
101400.47
101399.66
101398.86
101398.07
101397.29
101396.51
101395.74
101394.98
101394.23
101393.48
101392.75
101392.02
101391.29
101390.57
101389.86
101389.16
101388.46
101387.77
101387.09
101386.41
101385.74
101385.07
101384.41
101383.76
101383.11
101382.47
101381.83
101381.2
101380.57
101379.95
101379.34
101378.73
101378.12
101377.52
101376.93
101376.34
101375.75
101375.17
101374.59
101374.02
101373.46
101372.9
101372.34
101371.78
101371.24
101370.69
101370.15
101369.61
101369.08
101368.55
101368.03
101367.51
101366.99
101366.48
101365.97
101365.47
101364.97
101364.47
101363.98
101363.49
101363
101362.52
101362.04
101361.56
101361.09
101360.62
101360.15
101359.69
101359.23
101358.77
101358.31
101357.86
101357.41
101356.97
101356.53
101356.09
101355.65
101355.22
101354.79
101354.36
101353.93
101353.51
101353.09
101352.67
101352.26
101351.85
101351.44
101351.03
101350.62
101350.22
101349.82
101349.43
101349.03
101348.64
101348.25
101347.86
101347.47
101347.09
101346.71
101346.33
101345.95
101345.58
101345.2
101344.83
101344.46
101344.1
101343.73
101343.37
101343.01
101342.65
101342.29
101341.94
101341.59
101341.23
101340.89
101340.54
101340.19
101339.85
101339.51
101339.17
101338.83
101338.49
101338.15
101337.82
101337.49
101337.16
101336.83
101336.5
101336.18
101335.85
101335.53
101335.21
101334.89
101334.57
101334.26
101333.94
101333.63
101333.32
101333.01
101332.7
101332.39
101332.09
101331.78
101331.48
101331.18
101330.88
101330.58
101330.28
101329.98
101329.69
101329.39
101329.1
101328.81
101328.52
101328.23
101327.94
101327.65
101327.37
101327.09
101326.8
101326.52
101326.24
101325.96
101325.68
101325.41
101325.12
101440.86
101435.18
101433.36
101431.89
101430.31
101428.83
101427.47
101426.19
101424.98
101423.82
101422.71
101421.63
101420.58
101419.55
101418.54
101417.54
101416.55
101415.58
101414.61
101413.66
101412.71
101411.78
101410.85
101409.94
101409.03
101408.14
101407.25
101406.37
101405.5
101404.64
101403.79
101402.95
101402.12
101401.29
101400.47
101399.67
101398.87
101398.07
101397.29
101396.52
101395.75
101394.99
101394.23
101393.49
101392.75
101392.02
101391.29
101390.58
101389.87
101389.16
101388.46
101387.77
101387.09
101386.41
101385.74
101385.07
101384.41
101383.76
101383.11
101382.47
101381.83
101381.2
101380.57
101379.95
101379.34
101378.73
101378.12
101377.52
101376.93
101376.34
101375.75
101375.17
101374.59
101374.02
101373.46
101372.9
101372.34
101371.78
101371.24
101370.69
101370.15
101369.61
101369.08
101368.55
101368.03
101367.51
101366.99
101366.48
101365.97
101365.47
101364.97
101364.47
101363.98
101363.49
101363
101362.52
101362.04
101361.56
101361.09
101360.62
101360.15
101359.69
101359.22
101358.77
101358.31
101357.86
101357.41
101356.97
101356.53
101356.09
101355.65
101355.22
101354.79
101354.36
101353.93
101353.51
101353.09
101352.67
101352.26
101351.85
101351.44
101351.03
101350.62
101350.22
101349.82
101349.42
101349.03
101348.64
101348.25
101347.86
101347.47
101347.09
101346.71
101346.33
101345.95
101345.58
101345.2
101344.83
101344.46
101344.1
101343.73
101343.37
101343.01
101342.65
101342.29
101341.94
101341.59
101341.23
101340.88
101340.54
101340.19
101339.85
101339.51
101339.17
101338.83
101338.49
101338.15
101337.82
101337.49
101337.16
101336.83
101336.5
101336.18
101335.85
101335.53
101335.21
101334.89
101334.57
101334.26
101333.94
101333.63
101333.32
101333.01
101332.7
101332.39
101332.09
101331.78
101331.48
101331.18
101330.88
101330.58
101330.28
101329.98
101329.69
101329.39
101329.1
101328.81
101328.52
101328.23
101327.94
101327.65
101327.37
101327.08
101326.8
101326.52
101326.24
101325.96
101325.68
101325.41
101325.12
101441.6
101435.05
101433.35
101431.9
101430.31
101428.83
101427.47
101426.19
101424.97
101423.82
101422.7
101421.63
101420.58
101419.55
101418.53
101417.53
101416.55
101415.57
101414.61
101413.65
101412.71
101411.78
101410.85
101409.94
101409.03
101408.13
101407.25
101406.37
101405.5
101404.64
101403.79
101402.95
101402.11
101401.29
101400.47
101399.66
101398.86
101398.07
101397.29
101396.51
101395.74
101394.98
101394.23
101393.49
101392.75
101392.02
101391.29
101390.57
101389.86
101389.16
101388.46
101387.77
101387.09
101386.41
101385.74
101385.07
101384.41
101383.76
101383.11
101382.47
101381.83
101381.2
101380.57
101379.95
101379.34
101378.73
101378.12
101377.52
101376.93
101376.33
101375.75
101375.17
101374.59
101374.02
101373.46
101372.89
101372.34
101371.78
101371.23
101370.69
101370.15
101369.61
101369.08
101368.55
101368.03
101367.51
101366.99
101366.48
101365.97
101365.47
101364.97
101364.47
101363.98
101363.48
101363
101362.51
101362.03
101361.56
101361.08
101360.61
101360.15
101359.68
101359.22
101358.77
101358.31
101357.86
101357.41
101356.97
101356.53
101356.09
101355.65
101355.22
101354.79
101354.36
101353.93
101353.51
101353.09
101352.67
101352.26
101351.85
101351.44
101351.03
101350.62
101350.22
101349.82
101349.42
101349.03
101348.64
101348.25
101347.86
101347.47
101347.09
101346.71
101346.33
101345.95
101345.58
101345.2
101344.83
101344.46
101344.1
101343.73
101343.37
101343.01
101342.65
101342.29
101341.94
101341.58
101341.23
101340.88
101340.54
101340.19
101339.85
101339.51
101339.16
101338.83
101338.49
101338.15
101337.82
101337.49
101337.16
101336.83
101336.5
101336.18
101335.85
101335.53
101335.21
101334.89
101334.57
101334.26
101333.94
101333.63
101333.32
101333.01
101332.7
101332.39
101332.09
101331.78
101331.48
101331.18
101330.88
101330.58
101330.28
101329.98
101329.69
101329.39
101329.1
101328.81
101328.52
101328.23
101327.94
101327.65
101327.37
101327.08
101326.8
101326.52
101326.24
101325.96
101325.68
101325.41
101325.12
)
;

boundaryField
{
    exteriorWall
    {
        type            zeroGradient;
    }
    inlet
    {
        type            zeroGradient;
    }
    outlet
    {
        type            fixedValue;
        value           uniform 101325;
    }
    walls
    {
        type            zeroGradient;
    }
    frontAndBack
    {
        type            empty;
    }
    frontAndBack_pos
    {
        type            wedge;
    }
    frontAndBack_neg
    {
        type            wedge;
    }
}


// ************************************************************************* //
