/*--------------------------------*- C++ -*----------------------------------*\
  =========                 |
  \\      /  F ield         | OpenFOAM: The Open Source CFD Toolbox
   \\    /   O peration     | Website:  https://openfoam.org
    \\  /    A nd           | Version:  10
     \\/     M anipulation  |
\*---------------------------------------------------------------------------*/
FoamFile
{
    format      ascii;
    class       surfaceScalarField;
    location    "5000/FLUID";
    object      phi;
}
// * * * * * * * * * * * * * * * * * * * * * * * * * * * * * * * * * * * * * //

dimensions      [1 0 -1 0 0 0 0];

internalField   nonuniform List<scalar> 
2194
(
6.9267303e-06
-1.7706213e-07
7.1718311e-06
-2.4510067e-07
7.420099e-06
-2.4826785e-07
7.6557532e-06
-2.3565434e-07
7.8676637e-06
-2.1191062e-07
8.05014e-06
-1.8247643e-07
8.2026448e-06
-1.5250481e-07
8.3269018e-06
-1.2425691e-07
8.4256127e-06
-9.8710859e-08
8.5018671e-06
-7.6254383e-08
8.5587348e-06
-5.6867618e-08
8.5990431e-06
-4.0308254e-08
8.6252923e-06
-2.6249198e-08
8.6395992e-06
-1.4306942e-08
8.6436973e-06
-4.0981802e-09
8.6390977e-06
4.5995857e-09
8.6272421e-06
1.1855583e-08
8.6094765e-06
1.7765645e-08
8.5869897e-06
2.2486832e-08
8.5608159e-06
2.6173829e-08
8.5318481e-06
2.8967716e-08
8.5008515e-06
3.0996652e-08
8.468476e-06
3.2375452e-08
8.4352703e-06
3.3205748e-08
8.4016934e-06
3.3576846e-08
8.3681266e-06
3.356679e-08
8.3348832e-06
3.3243432e-08
8.3022177e-06
3.2665482e-08
8.2703342e-06
3.1883496e-08
8.2393934e-06
3.0940807e-08
8.209519e-06
2.9874381e-08
8.1808034e-06
2.8715603e-08
8.1533124e-06
2.7490986e-08
8.1270897e-06
2.622277e-08
8.1021603e-06
2.4929397e-08
8.0785351e-06
2.3625187e-08
8.0562124e-06
2.2322736e-08
8.0351789e-06
2.1033483e-08
8.0154132e-06
1.9765627e-08
7.9968879e-06
1.85253e-08
7.9795707e-06
1.7317254e-08
7.9634256e-06
1.6145097e-08
7.9484141e-06
1.5011489e-08
7.9344958e-06
1.3918297e-08
7.9216291e-06
1.2866719e-08
7.9097717e-06
1.1857399e-08
7.8988812e-06
1.0890527e-08
7.8889152e-06
9.9659527e-09
7.8798319e-06
9.083299e-09
7.8715898e-06
8.2420678e-09
7.8641478e-06
7.4420277e-09
7.8574656e-06
6.6821686e-09
7.8515051e-06
5.9605469e-09
7.84623e-06
5.2751157e-09
7.8416059e-06
4.62407e-09
7.8376001e-06
4.0057558e-09
7.8341815e-06
3.4186166e-09
7.8313203e-06
2.8611798e-09
7.8289883e-06
2.3320443e-09
7.8271584e-06
1.829865e-09
7.8258051e-06
1.3533409e-09
7.8249039e-06
9.0116203e-10
7.8244319e-06
4.7206118e-10
7.824368e-06
6.387292e-11
7.8246935e-06
-3.2545155e-10
7.8253901e-06
-6.9661686e-10
7.8264402e-06
-1.0501316e-09
7.8278268e-06
-1.3865814e-09
7.8295333e-06
-1.7065678e-09
7.8315441e-06
-2.0107058e-09
7.8338437e-06
-2.2996278e-09
7.8364177e-06
-2.5739777e-09
7.8392521e-06
-2.834402e-09
7.8423336e-06
-3.0815432e-09
7.8456496e-06
-3.3160342e-09
7.8491881e-06
-3.5384935e-09
7.8529377e-06
-3.7495217e-09
7.8568874e-06
-3.9496992e-09
7.8610269e-06
-4.1395845e-09
7.8653467e-06
-4.3197131e-09
7.8698372e-06
-4.4905971e-09
7.87449e-06
-4.6527249e-09
7.8792965e-06
-4.8065614e-09
7.8842491e-06
-4.9525483e-09
7.8893402e-06
-5.091105e-09
7.8945628e-06
-5.2226286e-09
7.8999103e-06
-5.3474953e-09
7.9053764e-06
-5.4660608e-09
7.910955e-06
-5.5786614e-09
7.9166406e-06
-5.6856147e-09
7.9224279e-06
-5.7872204e-09
7.9283116e-06
-5.8837616e-09
7.9342871e-06
-5.9755051e-09
7.9403498e-06
-6.0627025e-09
7.9464954e-06
-6.1455911e-09
7.9527198e-06
-6.2243944e-09
7.9590191e-06
-6.2993233e-09
7.9653897e-06
-6.3705767e-09
7.9718281e-06
-6.4383418e-09
7.9783309e-06
-6.5027952e-09
7.984895e-06
-6.5641036e-09
7.9915174e-06
-6.622423e-09
7.9981953e-06
-6.6779006e-09
8.004926e-06
-6.7306761e-09
8.0117068e-06
-6.7808812e-09
8.0185355e-06
-6.8286396e-09
8.0254096e-06
-6.8740682e-09
8.0323268e-06
-6.9172772e-09
8.0392852e-06
-6.9583707e-09
8.0462826e-06
-6.9974468e-09
8.0533172e-06
-7.0345983e-09
8.0603872e-06
-7.0699128e-09
8.0674906e-06
-7.1034731e-09
8.074626e-06
-7.1353575e-09
8.0817916e-06
-7.1656399e-09
8.088986e-06
-7.1943903e-09
8.0962077e-06
-7.2216749e-09
8.1034552e-06
-7.2475563e-09
8.1107273e-06
-7.2720939e-09
8.1180227e-06
-7.2953438e-09
8.12534e-06
-7.3173594e-09
8.1326782e-06
-7.3381911e-09
8.1400361e-06
-7.3578868e-09
8.1474126e-06
-7.3764919e-09
8.1548067e-06
-7.3940496e-09
8.1622173e-06
-7.4106008e-09
8.1696435e-06
-7.4261844e-09
8.1770843e-06
-7.4408375e-09
8.1845389e-06
-7.4545952e-09
8.1920064e-06
-7.467491e-09
8.1994859e-06
-7.4795566e-09
8.2069768e-06
-7.4908225e-09
8.2144781e-06
-7.5013176e-09
8.2219891e-06
-7.5110693e-09
8.2295092e-06
-7.520104e-09
8.2370377e-06
-7.5284467e-09
8.2445738e-06
-7.5361213e-09
8.252117e-06
-7.5431507e-09
8.2596665e-06
-7.5495568e-09
8.2672219e-06
-7.5553602e-09
8.2747825e-06
-7.5605812e-09
8.2823477e-06
-7.5652386e-09
8.2899171e-06
-7.5693509e-09
8.29749e-06
-7.5729355e-09
8.305066e-06
-7.5760093e-09
8.3126446e-06
-7.5785882e-09
8.3202253e-06
-7.5806879e-09
8.3278076e-06
-7.582323e-09
8.3353911e-06
-7.5835078e-09
8.3429754e-06
-7.584256e-09
8.3505599e-06
-7.5845807e-09
8.3581444e-06
-7.5844947e-09
8.3657285e-06
-7.58401e-09
8.3733116e-06
-7.5831383e-09
8.3808935e-06
-7.581891e-09
8.3884738e-06
-7.5802789e-09
8.3960521e-06
-7.5783125e-09
8.4036281e-06
-7.5760019e-09
8.4112014e-06
-7.5733569e-09
8.4187718e-06
-7.5703869e-09
8.4263389e-06
-7.5671011e-09
8.4339024e-06
-7.5635082e-09
8.441462e-06
-7.5596167e-09
8.4490175e-06
-7.555435e-09
8.4565685e-06
-7.5509709e-09
8.4641147e-06
-7.5462322e-09
8.4716559e-06
-7.5412264e-09
8.4791919e-06
-7.5359607e-09
8.4867223e-06
-7.5304421e-09
8.494247e-06
-7.5246775e-09
8.5017657e-06
-7.5186735e-09
8.5092781e-06
-7.5124364e-09
8.5167841e-06
-7.5059725e-09
8.5242834e-06
-7.4992878e-09
8.5317758e-06
-7.492388e-09
8.539261e-06
-7.485279e-09
8.546739e-06
-7.477966e-09
8.5542095e-06
-7.4704544e-09
8.5616722e-06
-7.4627493e-09
8.5691271e-06
-7.4548553e-09
8.5765738e-06
-7.4467771e-09
8.5840124e-06
-7.4385187e-09
8.5914424e-06
-7.4300836e-09
8.5988639e-06
-7.421474e-09
8.6062766e-06
-7.4126907e-09
8.6136803e-06
-7.403731e-09
8.6210749e-06
-7.3945867e-09
8.6284602e-06
-7.3852389e-09
8.6358358e-06
-7.3756498e-09
8.6432016e-06
-7.3657455e-09
8.6505569e-06
-7.3553856e-09
8.6579012e-06
-7.344298e-09
8.6652332e-06
-7.331981e-09
8.6725506e-06
-7.3173506e-09
8.6798493e-06
-7.2986972e-09
8.6871195e-06
-7.2702282e-09
8.6943487e-06
-7.2292007e-09
8.701471e-06
-7.1222947e-09
8.7085e-06
-7.0289777e-09
-6.1900563e-09
1.161182e-05
-5.8419719e-07
1.200495e-05
-6.3823019e-07
1.2327851e-05
-5.711688e-07
1.2590488e-05
-4.9829179e-07
1.2790349e-05
-4.1177088e-07
1.2933954e-05
-3.2608194e-07
1.3031468e-05
-2.5001934e-07
1.3092494e-05
-1.8528229e-07
1.312555e-05
-1.317673e-07
1.3137844e-05
-8.8548211e-08
1.3135183e-05
-5.4206198e-08
1.3122075e-05
-2.7200522e-08
1.3101878e-05
-6.0516249e-09
1.3077214e-05
1.0356169e-08
1.3050351e-05
2.276571e-08
1.3023024e-05
3.1926328e-08
1.2996318e-05
3.8560974e-08
1.2970861e-05
4.322295e-08
1.2947019e-05
4.6329218e-08
1.2924982e-05
4.8210484e-08
1.2904823e-05
4.9127123e-08
1.2886536e-05
4.9283688e-08
1.2870069e-05
4.8841868e-08
1.2855345e-05
4.7930373e-08
1.2842269e-05
4.6652413e-08
1.2830744e-05
4.509136e-08
1.2820673e-05
4.3315003e-08
1.281196e-05
4.1378756e-08
1.2804515e-05
3.9328089e-08
1.2798255e-05
3.7200402e-08
1.2793103e-05
3.5026482e-08
1.2788987e-05
3.2831658e-08
1.2785841e-05
3.0636729e-08
1.2783606e-05
2.845871e-08
1.2782223e-05
2.6311478e-08
1.2781642e-05
2.4206341e-08
1.2781812e-05
2.2153293e-08
1.2782686e-05
2.0158794e-08
1.2784228e-05
1.8224514e-08
1.27864e-05
1.6353283e-08
1.2789169e-05
1.4547654e-08
1.2792505e-05
1.2809427e-08
1.2796377e-05
1.1139644e-08
1.2800756e-05
9.5386602e-09
1.2805617e-05
8.0062391e-09
1.2810933e-05
6.5416517e-09
1.2816679e-05
5.1437572e-09
1.2822834e-05
3.8110811e-09
1.2829376e-05
2.5417488e-09
1.2836284e-05
1.3337366e-09
1.2843544e-05
1.8201012e-10
1.2851145e-05
-9.1857799e-10
1.2859075e-05
-1.9695035e-09
1.2867321e-05
-2.9711574e-09
1.287587e-05
-3.9243021e-09
1.2884705e-05
-4.8300041e-09
1.2893813e-05
-5.6895164e-09
1.2903179e-05
-6.5042483e-09
1.2912787e-05
-7.2757386e-09
1.2922622e-05
-8.0056192e-09
1.2932671e-05
-8.695577e-09
1.2942919e-05
-9.3473004e-09
1.2953354e-05
-9.9624594e-09
1.296396e-05
-1.0542249e-08
1.2974723e-05
-1.1088113e-08
1.2985628e-05
-1.1602256e-08
1.2996665e-05
-1.2086681e-08
1.3007822e-05
-1.2543145e-08
1.3019088e-05
-1.297326e-08
1.3030456e-05
-1.337851e-08
1.3041917e-05
-1.3760273e-08
1.3053463e-05
-1.4119833e-08
1.3065087e-05
-1.4458393e-08
1.3076782e-05
-1.4777085e-08
1.3088543e-05
-1.5076978e-08
1.3100364e-05
-1.5359081e-08
1.3112238e-05
-1.5624348e-08
1.3124162e-05
-1.5873683e-08
1.3136131e-05
-1.6107944e-08
1.3148139e-05
-1.6327942e-08
1.3160183e-05
-1.6534446e-08
1.3172258e-05
-1.6728184e-08
1.3184362e-05
-1.6909844e-08
1.3196489e-05
-1.708008e-08
1.3208638e-05
-1.7239507e-08
1.3220804e-05
-1.738871e-08
1.3232984e-05
-1.7528237e-08
1.3245177e-05
-1.765861e-08
1.3257379e-05
-1.7780321e-08
1.3269587e-05
-1.7893833e-08
1.3281799e-05
-1.7999583e-08
1.3294013e-05
-1.8097984e-08
1.3306227e-05
-1.8189426e-08
1.3318439e-05
-1.8274275e-08
1.3330646e-05
-1.8352878e-08
1.3342847e-05
-1.8425561e-08
1.3355041e-05
-1.8492632e-08
1.3367224e-05
-1.855438e-08
1.3379397e-05
-1.8611078e-08
1.3391557e-05
-1.8662986e-08
1.3403704e-05
-1.8710348e-08
1.3415835e-05
-1.8753392e-08
1.3427949e-05
-1.8792331e-08
1.3440046e-05
-1.8827369e-08
1.3452124e-05
-1.8858699e-08
1.3464181e-05
-1.8886503e-08
1.3476218e-05
-1.8910952e-08
1.3488233e-05
-1.8932206e-08
1.3500225e-05
-1.8950419e-08
1.3512194e-05
-1.8965734e-08
1.3524137e-05
-1.8978287e-08
1.3536056e-05
-1.8988207e-08
1.3547948e-05
-1.8995615e-08
1.3559813e-05
-1.9000626e-08
1.3571651e-05
-1.9003347e-08
1.358346e-05
-1.9003883e-08
1.3595241e-05
-1.900233e-08
1.3606992e-05
-1.8998779e-08
1.3618713e-05
-1.899332e-08
1.3630404e-05
-1.8986033e-08
1.3642064e-05
-1.8976997e-08
1.3653692e-05
-1.8966288e-08
1.3665288e-05
-1.8953974e-08
1.3676851e-05
-1.8940124e-08
1.3688382e-05
-1.89248e-08
1.369988e-05
-1.8908063e-08
1.3711343e-05
-1.8889971e-08
1.3722773e-05
-1.8870578e-08
1.3734168e-05
-1.8849937e-08
1.3745529e-05
-1.8828096e-08
1.3756855e-05
-1.8805104e-08
1.3768145e-05
-1.8781004e-08
1.3779399e-05
-1.8755841e-08
1.3790618e-05
-1.8729654e-08
1.38018e-05
-1.8702484e-08
1.3812946e-05
-1.8674367e-08
1.3824055e-05
-1.8645339e-08
1.3835128e-05
-1.8615434e-08
1.3846163e-05
-1.8584686e-08
1.3857161e-05
-1.8553125e-08
1.3868121e-05
-1.8520781e-08
1.3879043e-05
-1.8487684e-08
1.3889928e-05
-1.845386e-08
1.3900774e-05
-1.8419337e-08
1.3911582e-05
-1.8384139e-08
1.3922352e-05
-1.8348292e-08
1.3933083e-05
-1.8311818e-08
1.3943776e-05
-1.8274741e-08
1.3954429e-05
-1.8237081e-08
1.3965044e-05
-1.8198861e-08
1.3975619e-05
-1.81601e-08
1.3986156e-05
-1.8120818e-08
1.3996653e-05
-1.8081033e-08
1.400711e-05
-1.8040764e-08
1.4017528e-05
-1.8000028e-08
1.4027907e-05
-1.7958843e-08
1.4038246e-05
-1.7917225e-08
1.4048545e-05
-1.7875189e-08
1.4058804e-05
-1.7832751e-08
1.4069024e-05
-1.7789925e-08
1.4079204e-05
-1.7746727e-08
1.4089343e-05
-1.7703171e-08
1.4099443e-05
-1.7659269e-08
1.4109502e-05
-1.7615036e-08
1.4119522e-05
-1.7570483e-08
1.4129501e-05
-1.7525624e-08
1.4139441e-05
-1.748047e-08
1.414934e-05
-1.7435034e-08
1.4159199e-05
-1.7389326e-08
1.4169017e-05
-1.7343357e-08
1.4178796e-05
-1.729714e-08
1.4188534e-05
-1.7250683e-08
1.4198232e-05
-1.7203998e-08
1.420789e-05
-1.7157094e-08
1.4217507e-05
-1.710998e-08
1.4227085e-05
-1.7062667e-08
1.4236622e-05
-1.7015163e-08
1.4246119e-05
-1.6967476e-08
1.4255576e-05
-1.6919615e-08
1.4264993e-05
-1.6871589e-08
1.4274369e-05
-1.6823403e-08
1.4283706e-05
-1.6775066e-08
1.4293002e-05
-1.6726582e-08
1.4302259e-05
-1.6677957e-08
1.4311475e-05
-1.662919e-08
1.4320652e-05
-1.6580278e-08
1.4329788e-05
-1.6531209e-08
1.4338885e-05
-1.6481955e-08
1.4347942e-05
-1.643246e-08
1.4356959e-05
-1.638262e-08
1.4365936e-05
-1.6332241e-08
1.4374872e-05
-1.6280959e-08
1.4383769e-05
-1.6228155e-08
1.4392624e-05
-1.6172465e-08
1.4401437e-05
-1.6112347e-08
1.4410206e-05
-1.6039222e-08
1.4418937e-05
-1.5959549e-08
1.4427567e-05
-1.5752887e-08
1.4436247e-05
-1.5709153e-08
-1.3427344e-08
1.0264591e-05
-1.0137514e-06
1.0445078e-05
-8.1871735e-07
1.0511161e-05
-6.3725128e-07
1.0523065e-05
-5.1019594e-07
1.0502556e-05
-3.9126133e-07
1.0468105e-05
-2.9163115e-07
1.0430086e-05
-2.1200072e-07
1.0393938e-05
-1.4913391e-07
1.0362661e-05
-1.0049081e-07
1.0337764e-05
-6.3651276e-08
1.031982e-05
-3.6262069e-08
1.0308837e-05
-1.6217241e-08
1.0304469e-05
-1.6836578e-09
1.0306137e-05
8.6876806e-09
1.0313073e-05
1.5830042e-08
1.0324454e-05
2.0545373e-08
1.0339545e-05
2.3469729e-08
1.035769e-05
2.5078077e-08
1.0378306e-05
2.5713394e-08
1.0400888e-05
2.5628989e-08
1.0425002e-05
2.5012793e-08
1.0450281e-05
2.4004362e-08
1.0476415e-05
2.2708198e-08
1.0503142e-05
2.1203373e-08
1.0530244e-05
1.955037e-08
1.0557539e-05
1.7795959e-08
1.0584878e-05
1.5976689e-08
1.0612135e-05
1.4121369e-08
1.063921e-05
1.2252868e-08
1.0666021e-05
1.038942e-08
1.0692502e-05
8.5456172e-09
1.0718601e-05
6.7332099e-09
1.0744275e-05
4.961822e-09
1.0769494e-05
3.240154e-09
1.0794229e-05
1.5766027e-09
1.0818445e-05
-9.5292573e-12
1.0842119e-05
-1.5208822e-09
1.0865253e-05
-2.975196e-09
1.0887847e-05
-4.3695526e-09
1.0909901e-05
-5.7011784e-09
1.0931418e-05
-6.9689848e-09
1.09524e-05
-8.1727417e-09
1.0972853e-05
-9.3128846e-09
1.0992782e-05
-1.0390402e-08
1.1012195e-05
-1.1406702e-08
1.10311e-05
-1.2363494e-08
1.1049506e-05
-1.3262705e-08
1.1067424e-05
-1.4106403e-08
1.1084862e-05
-1.4896688e-08
1.1101832e-05
-1.5635674e-08
1.1118337e-05
-1.632285e-08
1.1134377e-05
-1.6958894e-08
1.1149956e-05
-1.7549039e-08
1.1165083e-05
-1.8097942e-08
1.1179768e-05
-1.8608766e-08
1.1194022e-05
-1.9083837e-08
1.1207857e-05
-1.952503e-08
1.1221287e-05
-1.9933974e-08
1.1234323e-05
-2.031218e-08
1.1246979e-05
-2.06611e-08
1.1259265e-05
-2.0982158e-08
1.1271195e-05
-2.1276744e-08
1.1282778e-05
-2.1546248e-08
1.1294028e-05
-2.1791881e-08
1.1304955e-05
-2.2014764e-08
1.1315569e-05
-2.2216196e-08
1.132588e-05
-2.2397504e-08
1.1335896e-05
-2.2559958e-08
1.1345628e-05
-2.2704758e-08
1.1355082e-05
-2.283303e-08
1.1364268e-05
-2.2945821e-08
1.1373192e-05
-2.3044105e-08
1.1381863e-05
-2.312879e-08
1.1390286e-05
-2.3200724e-08
1.139847e-05
-2.3260703e-08
1.140642e-05
-2.3309471e-08
1.1414144e-05
-2.334773e-08
1.1421646e-05
-2.3376139e-08
1.1428934e-05
-2.3395318e-08
1.1436011e-05
-2.3405854e-08
1.1442885e-05
-2.3408295e-08
1.144956e-05
-2.3403162e-08
1.1456041e-05
-2.3390944e-08
1.1462333e-05
-2.3372101e-08
1.1468441e-05
-2.3347065e-08
1.1474368e-05
-2.3316246e-08
1.148012e-05
-2.3280026e-08
1.14857e-05
-2.3238766e-08
1.1491113e-05
-2.3192806e-08
1.1496362e-05
-2.3142463e-08
1.150145e-05
-2.3088037e-08
1.1506382e-05
-2.3029809e-08
1.151116e-05
-2.2968043e-08
1.1515789e-05
-2.2902985e-08
1.1520271e-05
-2.2834868e-08
1.152461e-05
-2.276391e-08
1.1528807e-05
-2.2690315e-08
1.1532867e-05
-2.2614273e-08
1.1536792e-05
-2.2535965e-08
1.1540585e-05
-2.2455557e-08
1.1544247e-05
-2.2373215e-08
1.1547783e-05
-2.2289082e-08
1.1551194e-05
-2.2203292e-08
1.1554483e-05
-2.2115975e-08
1.1557651e-05
-2.2027255e-08
1.1560702e-05
-2.1937245e-08
1.1563637e-05
-2.1846053e-08
1.1566459e-05
-2.1753776e-08
1.1569169e-05
-2.166051e-08
1.1571769e-05
-2.1566341e-08
1.1574262e-05
-2.1471352e-08
1.157665e-05
-2.1375619e-08
1.1578933e-05
-2.1279215e-08
1.1581115e-05
-2.1182205e-08
1.1583196e-05
-2.1084655e-08
1.1585179e-05
-2.0986622e-08
1.1587065e-05
-2.0888162e-08
1.1588855e-05
-2.0789326e-08
1.1590552e-05
-2.0690164e-08
1.1592157e-05
-2.0590721e-08
1.1593671e-05
-2.049104e-08
1.1595096e-05
-2.039116e-08
1.1596433e-05
-2.0291119e-08
1.1597684e-05
-2.0190952e-08
1.159885e-05
-2.0090692e-08
1.1599932e-05
-1.999037e-08
1.1600932e-05
-1.9890014e-08
1.1601851e-05
-1.9789653e-08
1.1602691e-05
-1.9689311e-08
1.1603451e-05
-1.9589012e-08
1.1604135e-05
-1.9488779e-08
1.1604743e-05
-1.9388632e-08
1.1605276e-05
-1.9288592e-08
1.1605735e-05
-1.9188678e-08
1.1606121e-05
-1.9088905e-08
1.1606436e-05
-1.8989292e-08
1.160668e-05
-1.8889853e-08
1.1606856e-05
-1.8790602e-08
1.1606962e-05
-1.8691554e-08
1.1607002e-05
-1.8592721e-08
1.1606975e-05
-1.8494115e-08
1.1606883e-05
-1.8395747e-08
1.1606727e-05
-1.8297628e-08
1.1606508e-05
-1.8199769e-08
1.1606226e-05
-1.8102178e-08
1.1605882e-05
-1.8004864e-08
1.1605478e-05
-1.7907836e-08
1.1605015e-05
-1.7811102e-08
1.1604492e-05
-1.7714669e-08
1.1603912e-05
-1.7618544e-08
1.1603275e-05
-1.7522734e-08
1.1602581e-05
-1.7427245e-08
1.1601832e-05
-1.7332084e-08
1.1601028e-05
-1.7237254e-08
1.1600171e-05
-1.7142763e-08
1.1599261e-05
-1.7048615e-08
1.1598299e-05
-1.6954814e-08
1.1597285e-05
-1.6861366e-08
1.159622e-05
-1.6768274e-08
1.1595106e-05
-1.6675542e-08
1.1593942e-05
-1.6583175e-08
1.159273e-05
-1.6491176e-08
1.1591471e-05
-1.6399549e-08
1.1590164e-05
-1.6308297e-08
1.1588811e-05
-1.6217422e-08
1.1587412e-05
-1.6126929e-08
1.1585968e-05
-1.6036819e-08
1.1584481e-05
-1.5947096e-08
1.1582949e-05
-1.5857762e-08
1.1581374e-05
-1.576882e-08
1.1579758e-05
-1.5680271e-08
1.1578099e-05
-1.5592118e-08
1.1576399e-05
-1.5504363e-08
1.1574659e-05
-1.5417008e-08
1.1572879e-05
-1.5330055e-08
1.157106e-05
-1.5243504e-08
1.1569202e-05
-1.5157358e-08
1.1567307e-05
-1.5071617e-08
1.1565373e-05
-1.4986284e-08
1.1563403e-05
-1.4901357e-08
1.1561396e-05
-1.4816838e-08
1.1559354e-05
-1.4732727e-08
1.1557277e-05
-1.4649022e-08
1.1555164e-05
-1.4565722e-08
1.1553018e-05
-1.4482824e-08
1.1550838e-05
-1.4400318e-08
1.1548625e-05
-1.4318192e-08
1.1546379e-05
-1.4236421e-08
1.1544102e-05
-1.415496e-08
1.1541793e-05
-1.4073733e-08
1.1539453e-05
-1.3992605e-08
1.1537084e-05
-1.3911347e-08
1.1534685e-05
-1.3829658e-08
1.153226e-05
-1.3746956e-08
1.1529812e-05
-1.3664202e-08
1.1527351e-05
-1.3578473e-08
1.1524914e-05
-1.3522972e-08
1.152257e-05
-1.3409038e-08
1.1520637e-05
-1.3776011e-08
-1.2153943e-08
7.4522902e-06
-1.1595754e-06
7.3381959e-06
-7.0462307e-07
7.2160736e-06
-5.1512897e-07
7.1111125e-06
-4.0523484e-07
7.0302833e-06
-3.1043211e-07
6.973677e-06
-2.3502492e-07
6.9369252e-06
-1.7524887e-07
6.9159117e-06
-1.281204e-07
6.9073395e-06
-9.1918693e-08
6.9085656e-06
-6.4877358e-08
6.917495e-06
-4.5191471e-08
6.9324755e-06
-3.1197685e-08
6.9522515e-06
-2.1459711e-08
6.9757319e-06
-1.4792717e-08
7.0018757e-06
-1.0313767e-08
7.0298388e-06
-7.417684e-09
7.0589547e-06
-5.6461624e-09
7.0886914e-06
-4.6586597e-09
7.1186201e-06
-4.2152976e-09
7.148396e-06
-4.1469035e-09
7.1777431e-06
-4.3342958e-09
7.2064415e-06
-4.6940292e-09
7.2343173e-06
-5.16761e-09
7.2612345e-06
-5.7138098e-09
7.2870882e-06
-6.3033646e-09
7.3117995e-06
-6.9153255e-09
7.3353107e-06
-7.5345597e-09
7.3575822e-06
-8.1500481e-09
7.3785888e-06
-8.7537214e-09
7.3983178e-06
-9.3396573e-09
7.416767e-06
-9.9035124e-09
7.4339423e-06
-1.0442089e-08
7.4498571e-06
-1.0953004e-08
7.4645315e-06
-1.1434213e-08
7.4779925e-06
-1.1884413e-08
7.4902886e-06
-1.2305658e-08
7.5014637e-06
-1.2695984e-08
7.5115434e-06
-1.3054918e-08
7.5205601e-06
-1.3386189e-08
7.5285497e-06
-1.3690825e-08
7.5355501e-06
-1.3969352e-08
7.5415996e-06
-1.4222299e-08
7.5467371e-06
-1.4450311e-08
7.5510008e-06
-1.4654183e-08
7.554429e-06
-1.483483e-08
7.5570587e-06
-1.4993251e-08
7.5589265e-06
-1.5130499e-08
7.5600678e-06
-1.5247658e-08
7.5605169e-06
-1.5345824e-08
7.5603075e-06
-1.5426296e-08
7.5594742e-06
-1.5489559e-08
7.5580508e-06
-1.5535499e-08
7.5560671e-06
-1.5565332e-08
7.5535501e-06
-1.5580944e-08
7.5505253e-06
-1.5583905e-08
7.5470168e-06
-1.5575417e-08
7.5430482e-06
-1.5556419e-08
7.5386419e-06
-1.5527684e-08
7.5338197e-06
-1.5489891e-08
7.5286022e-06
-1.5443664e-08
7.5230097e-06
-1.5389598e-08
7.5170612e-06
-1.5328266e-08
7.5107752e-06
-1.5260243e-08
7.5041693e-06
-1.5186043e-08
7.4972607e-06
-1.5106107e-08
7.4900654e-06
-1.5020918e-08
7.4825989e-06
-1.4930969e-08
7.4748756e-06
-1.4836725e-08
7.4669095e-06
-1.4738635e-08
7.4587136e-06
-1.4637117e-08
7.4503003e-06
-1.4532561e-08
7.4416816e-06
-1.4425327e-08
7.4328685e-06
-1.4315748e-08
7.4238719e-06
-1.420413e-08
7.414702e-06
-1.4090756e-08
7.4053684e-06
-1.3975888e-08
7.3958804e-06
-1.385977e-08
7.3862469e-06
-1.3742625e-08
7.3764763e-06
-1.3624663e-08
7.3665765e-06
-1.3506076e-08
7.3565552e-06
-1.3387042e-08
7.3464198e-06
-1.3267727e-08
7.3361771e-06
-1.3148283e-08
7.3258339e-06
-1.302885e-08
7.3153964e-06
-1.2909558e-08
7.3048706e-06
-1.2790524e-08
7.2942625e-06
-1.2671858e-08
7.2835774e-06
-1.255366e-08
7.2728206e-06
-1.243602e-08
7.2619971e-06
-1.2319021e-08
7.2511118e-06
-1.2202737e-08
7.2401693e-06
-1.2087237e-08
7.2291738e-06
-1.1972581e-08
7.2181296e-06
-1.1858824e-08
7.2070408e-06
-1.1746015e-08
7.1959111e-06
-1.1634197e-08
7.1847442e-06
-1.1523409e-08
7.1735436e-06
-1.1413684e-08
7.1623127e-06
-1.1305051e-08
7.1510546e-06
-1.1197534e-08
7.1397726e-06
-1.1091161e-08
7.1284695e-06
-1.0985948e-08
7.1171481e-06
-1.0881903e-08
7.1058111e-06
-1.0779039e-08
7.0944612e-06
-1.0677368e-08
7.0831009e-06
-1.0576894e-08
7.0717325e-06
-1.0477622e-08
7.0603582e-06
-1.0379555e-08
7.0489804e-06
-1.0282691e-08
7.0376011e-06
-1.0187028e-08
7.0262223e-06
-1.0092564e-08
7.014846e-06
-9.9992929e-09
7.003474e-06
-9.9072083e-09
6.9921081e-06
-9.8163027e-09
6.98075e-06
-9.7265671e-09
6.9694014e-06
-9.6379919e-09
6.9580638e-06
-9.5505664e-09
6.9467387e-06
-9.4642792e-09
6.9354277e-06
-9.379118e-09
6.924132e-06
-9.2950702e-09
6.9128531e-06
-9.2121224e-09
6.9015922e-06
-9.1302609e-09
6.8903506e-06
-9.0494714e-09
6.8791293e-06
-8.9697394e-09
6.8679297e-06
-8.8910502e-09
6.8567527e-06
-8.8133886e-09
6.8455994e-06
-8.7367395e-09
6.8344709e-06
-8.6610875e-09
6.823368e-06
-8.5864172e-09
6.8122917e-06
-8.5127129e-09
6.8012429e-06
-8.4399591e-09
6.7902224e-06
-8.3681403e-09
6.779231e-06
-8.2972411e-09
6.7682696e-06
-8.2272458e-09
6.7573388e-06
-8.1581391e-09
6.7464394e-06
-8.0899058e-09
6.7355721e-06
-8.0225307e-09
6.7247375e-06
-7.9559987e-09
6.7139363e-06
-7.8902951e-09
6.7031689e-06
-7.825405e-09
6.6924361e-06
-7.761314e-09
6.6817384e-06
-7.6980078e-09
6.6710762e-06
-7.6354722e-09
6.6604502e-06
-7.5736934e-09
6.6498606e-06
-7.5126575e-09
6.6393081e-06
-7.4523513e-09
6.6287931e-06
-7.3927613e-09
6.6183158e-06
-7.3338746e-09
6.6078768e-06
-7.2756785e-09
6.5974765e-06
-7.2181604e-09
6.587115e-06
-7.161308e-09
6.5767929e-06
-7.1051093e-09
6.5665104e-06
-7.0495524e-09
6.5562677e-06
-6.9946259e-09
6.5460653e-06
-6.9403184e-09
6.5359033e-06
-6.8866188e-09
6.525782e-06
-6.8335164e-09
6.5157016e-06
-6.7810006e-09
6.5056624e-06
-6.729061e-09
6.4956646e-06
-6.6776877e-09
6.4857083e-06
-6.6268706e-09
6.4757937e-06
-6.5766002e-09
6.465921e-06
-6.5268672e-09
6.4560904e-06
-6.4776624e-09
6.4463019e-06
-6.4289769e-09
6.4365558e-06
-6.3808019e-09
6.4268521e-06
-6.3331291e-09
6.417191e-06
-6.28595e-09
6.4075724e-06
-6.2392566e-09
6.3979967e-06
-6.1930411e-09
6.3884637e-06
-6.1472957e-09
6.3789736e-06
-6.1020129e-09
6.3695264e-06
-6.0571853e-09
6.3601222e-06
-6.0128057e-09
6.350761e-06
-5.9688671e-09
6.3414429e-06
-5.9253625e-09
6.3321678e-06
-5.8822852e-09
6.3229358e-06
-5.8396284e-09
6.3137469e-06
-5.7973856e-09
6.3046011e-06
-5.7555501e-09
6.2954984e-06
-5.7141154e-09
6.2864387e-06
-5.6730748e-09
6.2774221e-06
-5.6324217e-09
6.2684486e-06
-5.5921487e-09
6.259518e-06
-5.5522475e-09
6.2506304e-06
-5.5127085e-09
6.2417857e-06
-5.4735187e-09
6.2329839e-06
-5.4346597e-09
6.2242251e-06
-5.3961032e-09
6.2155092e-06
-5.3578035e-09
6.2068362e-06
-5.3196868e-09
6.1982065e-06
-5.2816255e-09
6.1896203e-06
-5.2434906e-09
6.1810782e-06
-5.2048492e-09
6.1725812e-06
-5.1671884e-09
6.164129e-06
-5.1262133e-09
6.1557264e-06
-5.1203717e-09
6.1473968e-06
-5.0795014e-09
6.1391408e-06
-5.5199939e-09
-6.4006206e-09
4.7661572e-06
-8.7733465e-07
4.5007612e-06
-4.3922701e-07
4.311096e-06
-3.2546375e-07
4.1599583e-06
-2.5409714e-07
4.0441699e-06
-1.9464375e-07
3.9566744e-06
-1.4752935e-07
3.8910207e-06
-1.0959517e-07
3.8424664e-06
-7.9566124e-08
3.8071311e-06
-5.6583349e-08
3.781793e-06
-3.9539336e-08
3.7638623e-06
-2.7260695e-08
3.7513119e-06
-1.8647313e-08
3.7426144e-06
-1.2762243e-08
3.7366376e-06
-8.8159089e-09
3.7325114e-06
-6.1875606e-09
3.729561e-06
-4.4672518e-09
3.7272816e-06
-3.3667728e-09
3.7253037e-06
-2.6807581e-09
3.7233576e-06
-2.2692065e-09
3.7212481e-06
-2.0374304e-09
3.7188356e-06
-1.9217542e-09
3.7160215e-06
-1.8799387e-09
3.7127381e-06
-1.8842264e-09
3.7089408e-06
-1.9164781e-09
3.7046023e-06
-1.9649001e-09
3.6997088e-06
-2.0218586e-09
3.6942567e-06
-2.0824346e-09
3.6882502e-06
-2.1434761e-09
3.6816994e-06
-2.2029819e-09
3.6746195e-06
-2.2597008e-09
3.6670288e-06
-2.3128687e-09
3.6589487e-06
-2.3620237e-09
3.6504026e-06
-2.4068924e-09
3.6414156e-06
-2.4472227e-09
3.632014e-06
-2.482767e-09
3.6222247e-06
-2.5163194e-09
3.6120754e-06
-2.5467334e-09
3.601592e-06
-2.5714978e-09
3.5907981e-06
-2.5923477e-09
3.5797174e-06
-2.6101048e-09
3.5683732e-06
-2.6250772e-09
3.5567883e-06
-2.6374204e-09
3.5449852e-06
-2.6472444e-09
3.5329857e-06
-2.6546573e-09
3.5208106e-06
-2.6597777e-09
3.5084801e-06
-2.6627338e-09
3.4960133e-06
-2.6636582e-09
3.4834283e-06
-2.6626908e-09
3.4707424e-06
-2.6599582e-09
3.4579719e-06
-2.6557439e-09
3.4451325e-06
-2.6501751e-09
3.4322399e-06
-2.6429101e-09
3.4193085e-06
-2.6338914e-09
3.406351e-06
-2.6234472e-09
3.393379e-06
-2.6118839e-09
3.380403e-06
-2.5994042e-09
3.3674327e-06
-2.5861337e-09
3.3544771e-06
-2.5721481e-09
3.3415447e-06
-2.5574974e-09
3.3286433e-06
-2.5422217e-09
3.3157801e-06
-2.5263598e-09
3.3029617e-06
-2.5099504e-09
3.2901945e-06
-2.4930491e-09
3.2774842e-06
-2.4757016e-09
3.264836e-06
-2.4579263e-09
3.2522549e-06
-2.4397587e-09
3.2397451e-06
-2.4212428e-09
3.2273108e-06
-2.4024193e-09
3.2149555e-06
-2.3833301e-09
3.2026824e-06
-2.3640165e-09
3.1904944e-06
-2.3445172e-09
3.1783939e-06
-2.3248672e-09
3.1663833e-06
-2.3050985e-09
3.1544644e-06
-2.2852401e-09
3.1426389e-06
-2.2653185e-09
3.1309084e-06
-2.2453579e-09
3.119274e-06
-2.2253808e-09
3.1077368e-06
-2.2054079e-09
3.0962976e-06
-2.1854583e-09
3.0849571e-06
-2.1655497e-09
3.0737157e-06
-2.1456985e-09
3.0625739e-06
-2.12592e-09
3.0515319e-06
-2.1062283e-09
3.0405897e-06
-2.0866363e-09
3.0297473e-06
-2.067156e-09
3.0190045e-06
-2.0477983e-09
3.0083613e-06
-2.0285733e-09
2.9978171e-06
-2.0094902e-09
2.9873716e-06
-1.9905573e-09
2.9770244e-06
-1.971782e-09
2.9667748e-06
-1.9531712e-09
2.9566223e-06
-1.9347309e-09
2.9465662e-06
-1.9164666e-09
2.9366058e-06
-1.898383e-09
2.9267402e-06
-1.8804841e-09
2.9169688e-06
-1.8627737e-09
2.9072906e-06
-1.8452547e-09
2.8977049e-06
-1.8279297e-09
2.8882106e-06
-1.8108005e-09
2.878807e-06
-1.793868e-09
2.869493e-06
-1.777138e-09
2.8602676e-06
-1.7606103e-09
2.85113e-06
-1.7442804e-09
2.8420791e-06
-1.7281509e-09
2.833114e-06
-1.7122224e-09
2.8242336e-06
-1.6964947e-09
2.8154369e-06
-1.6809671e-09
2.806723e-06
-1.6656389e-09
2.7980908e-06
-1.650509e-09
2.7895394e-06
-1.6355761e-09
2.7810676e-06
-1.6208389e-09
2.7726746e-06
-1.6062958e-09
2.7643594e-06
-1.591945e-09
2.7561209e-06
-1.5777847e-09
2.7479581e-06
-1.563813e-09
2.7398701e-06
-1.5500278e-09
2.731856e-06
-1.5364268e-09
2.7239147e-06
-1.5230078e-09
2.7160454e-06
-1.5097684e-09
2.708247e-06
-1.4967064e-09
2.7005187e-06
-1.4838191e-09
2.6928596e-06
-1.4711041e-09
2.6852686e-06
-1.4585589e-09
2.6777451e-06
-1.4461808e-09
2.670288e-06
-1.4339673e-09
2.6628965e-06
-1.4219157e-09
2.6555698e-06
-1.4100235e-09
2.648307e-06
-1.3982879e-09
2.6411073e-06
-1.3867063e-09
2.6339699e-06
-1.3752762e-09
2.6268939e-06
-1.3639947e-09
2.6198786e-06
-1.3528594e-09
2.6129232e-06
-1.3418677e-09
2.606027e-06
-1.3310169e-09
2.5991892e-06
-1.3203044e-09
2.592409e-06
-1.3097278e-09
2.5856858e-06
-1.2992845e-09
2.5790187e-06
-1.2889721e-09
2.5724072e-06
-1.278788e-09
2.5658505e-06
-1.2687298e-09
2.559348e-06
-1.2587952e-09
2.552899e-06
-1.2489818e-09
2.5465028e-06
-1.2392874e-09
2.5401588e-06
-1.2297095e-09
2.5338664e-06
-1.220246e-09
2.527625e-06
-1.2108947e-09
2.5214339e-06
-1.2016534e-09
2.5152925e-06
-1.19252e-09
2.5092003e-06
-1.1834925e-09
2.5031567e-06
-1.1745688e-09
2.4971612e-06
-1.1657469e-09
2.4912131e-06
-1.1570249e-09
2.4853119e-06
-1.1484009e-09
2.4794572e-06
-1.1398729e-09
2.4736483e-06
-1.1314393e-09
2.4678848e-06
-1.1230983e-09
2.4621661e-06
-1.114848e-09
2.4564918e-06
-1.1066869e-09
2.4508613e-06
-1.0986133e-09
2.4452743e-06
-1.0906255e-09
2.4397301e-06
-1.0827221e-09
2.4342284e-06
-1.0749015e-09
2.4287687e-06
-1.0671623e-09
2.4233506e-06
-1.0595029e-09
2.4179735e-06
-1.0519221e-09
2.4126371e-06
-1.0444184e-09
2.407341e-06
-1.0369906e-09
2.4020847e-06
-1.0296372e-09
2.3968678e-06
-1.0223572e-09
2.3916899e-06
-1.0151492e-09
2.3865506e-06
-1.0080121e-09
2.3814495e-06
-1.0009447e-09
2.3763863e-06
-9.939458e-10
2.3713605e-06
-9.8701432e-10
2.3663718e-06
-9.8014915e-10
2.3614198e-06
-9.7334918e-10
2.3565041e-06
-9.6661336e-10
2.3516244e-06
-9.5994065e-10
2.3467804e-06
-9.5332989e-10
2.3419716e-06
-9.4678008e-10
2.3371978e-06
-9.402901e-10
2.3324586e-06
-9.3385884e-10
2.3277536e-06
-9.2748509e-10
2.3230826e-06
-9.2116746e-10
2.3184453e-06
-9.1490428e-10
2.3138413e-06
-9.0869339e-10
2.3092703e-06
-9.0253161e-10
2.304732e-06
-8.9641407e-10
2.3002263e-06
-8.9033277e-10
2.2957527e-06
-8.8427412e-10
2.2913113e-06
-8.7821747e-10
2.2869018e-06
-8.7211558e-10
2.2825243e-06
-8.6597396e-10
2.2781789e-06
-8.5944801e-10
2.2738656e-06
-8.5395576e-10
2.269584e-06
-8.4456049e-10
2.2653197e-06
-8.5609567e-10
2.2610826e-06
-8.4245111e-10
2.2565269e-06
-9.6421795e-10
-2.2162885e-09
2.4824917e-06
2.0432647e-06
1.7178009e-06
1.4637038e-06
1.26906e-06
1.1215307e-06
1.0119355e-06
9.3236936e-07
8.7578602e-07
8.3624668e-07
8.0898599e-07
7.9033868e-07
7.7757643e-07
7.6876052e-07
7.6257296e-07
7.5810571e-07
7.5473894e-07
7.5205818e-07
7.4978898e-07
7.4775155e-07
7.4582979e-07
7.4394985e-07
7.4206563e-07
7.4014915e-07
7.3818425e-07
7.3616239e-07
7.3407995e-07
7.3193648e-07
7.297335e-07
7.2747379e-07
7.2516093e-07
7.227989e-07
7.2039201e-07
7.1794479e-07
7.1546202e-07
7.129457e-07
7.1039897e-07
7.0782747e-07
7.0523512e-07
7.0262502e-07
6.9999994e-07
6.9736252e-07
6.9471527e-07
6.9206062e-07
6.8940084e-07
6.8673811e-07
6.8407445e-07
6.8141176e-07
6.787518e-07
6.7609605e-07
6.7344588e-07
6.7080297e-07